LAMMPS data file by lmp_data

10240 atoms
2400 bonds
0 angles
0 dihedrals
0 impropers

2 atom types
1 bond types
0 angle types
0 dihedral types
0 improper types

-24 72 xlo xhi
-24 72 ylo yhi
-24 72 zlo zhi

Masses

1 0.2
2 1

Atoms

1 1 1    0.365  -7.992   0.000
2 1 1   -0.466  -7.975   0.427
3 1 1    0.071  -7.958  -0.812
4 1 1    0.587  -7.942   0.765
5 1 1   -1.076  -7.925  -0.190
6 1 1    1.019  -7.908  -0.648
7 1 1   -0.341  -7.892   1.267
8 1 1   -0.649  -7.875  -1.250
9 1 1    1.408  -7.858   0.514
10 1 1   -1.464  -7.842   0.604
11 1 1    0.705  -7.825  -1.507
12 1 1    0.521  -7.808   1.661
13 1 1   -1.569  -7.792  -0.909
14 1 1    1.840  -7.775  -0.405
15 1 1   -1.122  -7.758   1.596
16 1 1   -0.259  -7.742  -2.000
17 1 1    1.590  -7.725   1.340
18 1 1   -2.139  -7.708   0.088
19 1 1    1.559  -7.692  -1.552
20 1 1   -0.104  -7.675   2.255
21 1 1   -1.482  -7.658  -1.776
22 1 1    2.346  -7.642   0.316
23 1 1   -1.987  -7.625   1.382
24 1 1    0.543  -7.608  -2.412
25 1 1    1.254  -7.592   2.189
26 1 1   -2.451  -7.575  -0.782
27 1 1    2.380  -7.558  -1.099
28 1 1   -1.030  -7.542   2.462
29 1 1   -0.919  -7.525  -2.555
30 1 1    2.444  -7.508   1.285
31 1 1   -2.714  -7.492   0.715
32 1 1    1.542  -7.475  -2.397
33 1 1    0.490  -7.458   2.852
34 1 1   -2.321  -7.442  -1.798
35 1 1    2.968  -7.425  -0.246
36 1 1   -2.050  -7.408   2.216
37 1 1    0.015  -7.392  -3.060
38 1 1    2.083  -7.375   2.296
39 1 1   -3.126  -7.358  -0.290
40 1 1    2.531  -7.342  -1.921
41 1 1   -0.576  -7.325   3.164
42 1 1   -1.733  -7.308  -2.754
43 1 1    3.174  -7.292   0.870
44 1 1   -2.961  -7.275   1.519
45 1 1    1.169  -7.258  -3.154
46 1 1    1.282  -7.242   3.149
47 1 1   -3.104  -7.225  -1.471
48 1 1    3.316  -7.208  -1.022
49 1 1   -1.772  -7.192   3.023
50 1 1   -0.743  -7.175  -3.459
51 1 1    2.912  -7.158   2.069
52 1 1   -3.577  -7.142   0.446
53 1 1    2.358  -7.125  -2.770
54 1 1    0.134  -7.108   3.668
55 1 1   -2.599  -7.092  -2.637
56 1 1    3.729  -7.075   0.191
57 1 1   -2.903  -7.058   2.399
58 1 1    0.525  -7.042  -3.760
59 1 1    2.171  -7.025   3.152
60 1 1   -3.760  -7.008  -0.865
61 1 1    3.383  -6.992  -1.917
62 1 1   -1.209  -6.975   3.727
63 1 1   -1.638  -6.958  -3.591
64 1 1    3.661  -6.942   1.553
65 1 1   -3.776  -6.925   1.337
66 1 1    1.894  -6.908  -3.562
67 1 1    1.016  -6.892   3.933
68 1 1   -3.430  -6.875  -2.229
69 1 1    4.062  -6.858  -0.678
70 1 1   -2.555  -6.842   3.266
71 1 1   -0.324  -6.825  -4.161
72 1 1    3.070  -6.808   2.868
73 1 1   -4.227  -6.792  -0.041
74 1 1    3.165  -6.775  -2.843
75 1 1   -0.416  -6.758   4.261
76 1 1   -2.587  -6.742  -3.443
77 1 1    4.259  -6.725   0.796
78 1 1   -3.700  -6.708   2.303
79 1 1    1.179  -6.692  -4.223
80 1 1    1.994  -6.675   3.933
81 1 1   -4.151  -6.658  -1.562
82 1 1    4.139  -6.642  -1.661
83 1 1   -1.940  -6.625   4.043
84 1 1   -1.307  -6.608  -4.315
85 1 1    3.900  -6.592   2.311
86 1 1   -4.460  -6.575   0.935
87 1 1    2.671  -6.558  -3.722
88 1 1    0.547  -6.542   4.572
89 1 1   -3.510  -6.525  -3.017
90 1 1    4.650  -6.508  -0.147
91 1 1   -3.346  -6.492   3.265
92 1 1    0.263  -6.475  -4.691
93 1 1    2.989  -6.458   3.654
94 1 1   -4.695  -6.442  -0.678
95 1 1    3.939  -6.425  -2.684
96 1 1   -1.097  -6.408   4.662
97 1 1   -2.351  -6.392  -4.197
98 1 1    4.590  -6.375   1.514
99 1 1   -4.427  -6.358   1.993
100 1 1    1.927  -6.342  -4.480
101 1 1    1.613  -6.325   4.625
102 1 1   -4.332  -6.308  -2.331
103 1 1    4.790  -6.292  -1.213
104 1 1   -2.724  -6.275   4.148
105 1 1   -0.796  -6.258  -4.919
106 1 1    3.926  -6.242   3.103
107 1 1   -5.012  -6.225   0.366
108 1 1    3.462  -6.208  -3.670
109 1 1   -0.074  -6.192   5.065
110 1 1   -3.380  -6.175  -3.800
111 1 1    5.080  -6.158   0.521
112 1 1   -4.114  -6.142   3.059
113 1 1    0.970  -6.125  -5.054
114 1 1    2.709  -6.108   4.399
115 1 1   -4.988  -6.092  -1.419
116 1 1    4.654  -6.075  -2.331
117 1 1   -1.864  -6.058   4.881
118 1 1   -1.930  -6.042  -4.876
119 1 1    4.734  -6.025   2.300
120 1 1   -5.063  -6.008   1.507
121 1 1    2.725  -5.992  -4.547
122 1 1    1.066  -5.975   5.212
123 1 1   -4.322  -5.958  -3.134
124 1 1    5.322  -5.942  -0.611
125 1 1   -3.524  -5.925   4.059
126 1 1   -0.144  -5.908  -5.392
127 1 1    3.761  -5.892   3.892
128 1 1   -5.420  -5.875  -0.330
129 1 1    4.233  -5.858  -3.429
130 1 1   -0.808  -5.842   5.406
131 1 1   -3.066  -5.825  -4.547
132 1 1    5.349  -5.808   1.286
133 1 1   -4.828  -5.792   2.673
134 1 1    1.760  -5.775  -5.249
135 1 1    2.255  -5.758   5.075
136 1 1   -5.107  -5.742  -2.226
137 1 1    5.285  -5.725  -1.814
138 1 1   -2.680  -5.708   4.923
139 1 1   -1.353  -5.692  -5.457
140 1 1    4.698  -5.675   3.119
141 1 1   -5.587  -5.658   0.876
142 1 1    3.538  -5.642  -4.433
143 1 1    0.387  -5.625   5.675
144 1 1   -4.131  -5.608  -3.935
145 1 1    5.720  -5.592   0.112
146 1 1   -4.306  -5.575   3.792
147 1 1    0.615  -5.558  -5.721
148 1 1    3.421  -5.542   4.646
149 1 1   -5.677  -5.525  -1.119
150 1 1    4.955  -5.508  -3.018
151 1 1   -1.620  -5.492   5.587
152 1 1   -2.587  -5.475  -5.228
153 1 1    5.454  -5.458   2.113
154 1 1   -5.463  -5.442   2.131
155 1 1    2.595  -5.425  -5.276
156 1 1    1.654  -5.408   5.658
157 1 1   -5.055  -5.392  -3.063
158 1 1    5.811  -5.375  -1.159
159 1 1   -3.511  -5.358   4.792
160 1 1   -0.650  -5.342  -5.920
161 1 1    4.489  -5.325   3.936
162 1 1   -5.984  -5.308   0.131
163 1 1    4.335  -5.292  -4.148
164 1 1   -0.395  -5.275   6.002
165 1 1   -3.772  -5.258  -4.704
166 1 1    5.973  -5.242   0.923
167 1 1   -5.039  -5.225   3.362
168 1 1    1.448  -5.208  -5.897
169 1 1    2.923  -5.192   5.339
170 1 1   -5.775  -5.175  -1.967
171 1 1    5.600  -5.158  -2.456
172 1 1   -2.476  -5.142   5.606
173 1 1   -1.966  -5.125  -5.820
174 1 1    5.393  -5.108   2.970
175 1 1   -5.996  -5.092   1.456
176 1 1    3.446  -5.075  -5.135
177 1 1    0.930  -5.058   6.128
178 1 1   -4.836  -5.042  -3.898
179 1 1    6.212  -5.025  -0.393
180 1 1   -4.325  -5.008   4.496
181 1 1    0.152  -4.992  -6.250
182 1 1    4.118  -4.975   4.721
183 1 1   -6.239  -4.958  -0.701
184 1 1    5.085  -4.942  -3.705
185 1 1   -1.249  -4.925   6.179
186 1 1   -3.260  -4.908  -5.411
187 1 1    6.071  -4.892   1.792
188 1 1   -5.699  -4.875   2.785
189 1 1    2.325  -4.858  -5.915
190 1 1    2.286  -4.842   5.944
191 1 1   -5.712  -4.825  -2.845
192 1 1    6.146  -4.808  -1.764
193 1 1   -3.346  -4.792   5.463
194 1 1   -1.225  -4.775  -6.301
195 1 1    5.169  -4.758   3.826
196 1 1   -6.408  -4.742   0.672
197 1 1    4.279  -4.725  -4.833
198 1 1    0.110  -4.708   6.467
199 1 1   -4.457  -4.692  -4.703
200 1 1    6.476  -4.675   0.458
201 1 1   -5.094  -4.658   4.044
202 1 1    1.026  -4.642  -6.434
203 1 1    3.596  -4.625   5.448
204 1 1   -6.343  -4.608  -1.590
205 1 1    5.762  -4.592  -3.117
206 1 1   -2.147  -4.575   6.202
207 1 1   -2.611  -4.558  -6.034
208 1 1    6.011  -4.542   2.690
209 1 1   -6.261  -4.525   2.081
210 1 1    3.216  -4.508  -5.773
211 1 1    1.531  -4.492   6.441
212 1 1   -5.489  -4.475  -3.721
213 1 1    6.572  -4.458  -0.965
214 1 1   -4.201  -4.442   5.160
215 1 1   -0.388  -4.425  -6.653
216 1 1    4.788  -4.408   4.652
217 1 1   -6.684  -4.392  -0.196
218 1 1    5.069  -4.375  -4.378
219 1 1   -0.782  -4.358   6.663
220 1 1   -3.931  -4.342  -5.450
221 1 1    6.590  -4.325   1.366
222 1 1   -5.791  -4.308   3.450
223 1 1    1.943  -4.292  -6.466
224 1 1    2.940  -4.275   6.090
225 1 1   -6.291  -4.258  -2.508
226 1 1    6.343  -4.242  -2.403
227 1 1   -3.058  -4.225   6.066
228 1 1   -1.845  -4.208  -6.549
229 1 1    5.793  -4.192   3.588
230 1 1   -6.705  -4.175   1.270
231 1 1    4.093  -4.158  -5.473
232 1 1    0.681  -4.142   6.811
233 1 1   -5.110  -4.125  -4.569
234 1 1    6.864  -4.108  -0.083
235 1 1   -5.013  -4.092   4.704
236 1 1    0.519  -4.075  -6.865
237 1 1    4.260  -4.058   5.420
238 1 1   -6.812  -4.042  -1.120
239 1 1    5.788  -4.025  -3.781
240 1 1   -1.717  -4.008   6.707
241 1 1   -3.269  -3.992  -6.114
242 1 1    6.550  -3.975   2.303
243 1 1   -6.394  -3.958   2.730
244 1 1    2.874  -3.942  -6.340
245 1 1    2.166  -3.925   6.626
246 1 1   -6.081  -3.908  -3.427
247 1 1    6.808  -3.892  -1.583
248 1 1   -3.956  -3.875   5.774
249 1 1   -0.984  -3.858  -6.939
250 1 1    5.420  -3.842   4.457
251 1 1   -7.016  -3.825   0.375
252 1 1    4.927  -3.808  -5.022
253 1 1   -0.241  -3.792   7.040
254 1 1   -4.584  -3.775  -5.361
255 1 1    7.010  -3.758   0.857
256 1 1   -5.755  -3.742   4.108
257 1 1    1.470  -3.725  -6.925
258 1 1    3.598  -3.708   6.107
259 1 1   -6.787  -3.692  -2.075
260 1 1    6.414  -3.675  -3.058
261 1 1   -2.667  -3.658   6.596
262 1 1   -2.491  -3.642  -6.673
263 1 1    6.352  -3.625   3.241
264 1 1   -6.882  -3.608   1.903
265 1 1    3.793  -3.592  -6.059
266 1 1    1.297  -3.575   7.038
267 1 1   -5.717  -3.558  -4.319
268 1 1    7.141  -3.542  -0.678
269 1 1   -4.813  -3.525   5.330
270 1 1   -0.052  -3.508  -7.190
271 1 1    4.900  -3.492   5.272
272 1 1   -7.183  -3.475  -0.578
273 1 1    5.693  -3.458  -4.430
274 1 1   -1.207  -3.442   7.120
275 1 1   -3.924  -3.425  -6.072
276 1 1    7.003  -3.408   1.829
277 1 1   -6.406  -3.392   3.386
278 1 1    2.439  -3.375  -6.831
279 1 1    2.819  -3.358   6.692
280 1 1   -6.605  -3.342  -3.033
281 1 1    6.927  -3.325  -2.227
282 1 1   -3.607  -3.308   6.328
283 1 1   -1.617  -3.292  -7.110
284 1 1    6.001  -3.275   4.155
285 1 1   -7.239  -3.258   0.991
286 1 1    4.673  -3.242  -5.626
287 1 1    0.355  -3.225   7.313
288 1 1   -5.207  -3.208  -5.157
289 1 1    7.330  -3.192   0.286
290 1 1   -5.604  -3.175   4.745
291 1 1    0.928  -3.158  -7.291
292 1 1    4.245  -3.142   6.009
293 1 1   -7.196  -3.125  -1.565
294 1 1    6.369  -3.108  -3.711
295 1 1   -2.192  -3.092   7.045
296 1 1   -3.146  -3.075  -6.682
297 1 1    6.840  -3.058   2.805
298 1 1   -6.944  -3.042   2.554
299 1 1    3.398  -3.025  -6.580
300 1 1    1.941  -3.008   7.154
301 1 1   -6.269  -2.992  -3.968
302 1 1    7.310  -2.975  -1.310
303 1 1   -4.509  -2.958   5.909
304 1 1   -0.667  -2.942  -7.410
305 1 1    5.502  -2.925   5.017
306 1 1   -7.453  -2.908   0.017
307 1 1    5.488  -2.892  -5.051
308 1 1   -0.636  -2.875   7.438
309 1 1   -4.560  -2.858  -5.919
310 1 1    7.367  -2.842   1.286
311 1 1   -6.306  -2.825   4.032
312 1 1    1.928  -2.808  -7.239
313 1 1    3.471  -2.792   6.645
314 1 1   -7.054  -2.775  -2.558
315 1 1    6.935  -2.758  -2.881
316 1 1   -3.170  -2.742   6.814
317 1 1   -2.268  -2.725  -7.172
318 1 1    6.522  -2.708   3.759
319 1 1   -7.354  -2.692   1.635
320 1 1    4.322  -2.675  -6.178
321 1 1    0.987  -2.658   7.481
322 1 1   -5.785  -2.642  -4.853
323 1 1    7.550  -2.625  -0.330
324 1 1   -5.348  -2.608   5.347
325 1 1    0.332  -2.592  -7.561
326 1 1    4.866  -2.575   5.804
327 1 1   -7.515  -2.558  -0.993
328 1 1    6.217  -2.542  -4.347
329 1 1   -1.649  -2.525   7.410
330 1 1   -3.792  -2.508  -6.582
331 1 1    7.248  -2.492   2.294
332 1 1   -6.899  -2.475   3.207
333 1 1    2.923  -2.458  -7.029
334 1 1    2.595  -2.442   7.163
335 1 1   -6.756  -2.425  -3.531
336 1 1    7.372  -2.408  -1.962
337 1 1   -4.114  -2.392   6.431
338 1 1   -1.311  -2.375  -7.526
339 1 1    6.055  -2.358   4.667
340 1 1   -7.622  -2.342   0.649
341 1 1    5.185  -2.325  -5.631
342 1 1   -0.020  -2.308   7.660
343 1 1   -5.163  -2.292  -5.665
344 1 1    7.639  -2.275   0.690
345 1 1   -6.103  -2.258   4.654
346 1 1    1.357  -2.242  -7.559
347 1 1    4.108  -2.225   6.494
348 1 1   -7.420  -2.208  -2.015
349 1 1    6.837  -2.192  -3.529
350 1 1   -2.660  -2.175   7.225
351 1 1   -2.921  -2.158  -7.128
352 1 1    6.973  -2.142   3.285
353 1 1   -7.365  -2.125   2.289
354 1 1    3.887  -2.108  -6.667
355 1 1    1.639  -2.092   7.546
356 1 1   -6.309  -2.075  -4.460
357 1 1    7.669  -2.058  -0.974
358 1 1   -5.000  -2.042   5.902
359 1 1   -0.300  -2.025  -7.734
360 1 1    5.448  -2.008   5.503
361 1 1   -7.739  -1.992  -0.378
362 1 1    5.965  -1.975  -4.952
363 1 1   -1.054  -1.958   7.685
364 1 1   -4.416  -1.942  -6.382
365 1 1    7.571  -1.925   1.724
366 1 1   -6.751  -1.908   3.845
367 1 1    2.382  -1.892  -7.399
368 1 1    3.244  -1.875   7.068
369 1 1   -7.170  -1.858  -3.022
370 1 1    7.332  -1.842  -2.616
371 1 1   -3.641  -1.825   6.885
372 1 1   -1.967  -1.808  -7.541
373 1 1    6.547  -1.792   4.234
374 1 1   -7.691  -1.775   1.301
375 1 1    4.795  -1.758  -6.158
376 1 1    0.625  -1.742   7.783
377 1 1   -5.721  -1.725  -5.320
378 1 1    7.815  -1.708   0.058
379 1 1   -5.805  -1.692   5.239
380 1 1    0.742  -1.675  -7.787
381 1 1    4.715  -1.658   6.246
382 1 1   -7.700  -1.642  -1.421
383 1 1    6.640  -1.625  -4.155
384 1 1   -2.091  -1.608   7.553
385 1 1   -3.562  -1.592  -6.984
386 1 1    7.347  -1.575   2.745
387 1 1   -7.275  -1.558   2.940
388 1 1    3.380  -1.542  -7.085
389 1 1    2.294  -1.525   7.511
390 1 1   -6.768  -1.508  -3.990
391 1 1    7.689  -1.492  -1.630
392 1 1   -4.570  -1.475   6.398
393 1 1   -0.953  -1.458  -7.808
394 1 1    5.979  -1.442   5.116
395 1 1   -7.868  -1.425   0.267
396 1 1    5.623  -1.408  -5.513
397 1 1   -0.423  -1.392   7.867
398 1 1   -5.004  -1.375  -6.088
399 1 1    7.805  -1.358   1.109
400 1 1   -6.507  -1.342   4.456
401 1 1    1.789  -1.325  -7.684
402 1 1    3.873  -1.308   6.877
403 1 1   -7.503  -1.292  -2.456
404 1 1    7.194  -1.275  -3.259
405 1 1   -3.104  -1.258   7.265
406 1 1   -2.619  -1.242  -7.456
407 1 1    6.970  -1.225   3.730
408 1 1   -7.662  -1.208   1.959
409 1 1    4.328  -1.192  -6.622
410 1 1    1.282  -1.175   7.809
411 1 1   -6.222  -1.158  -4.893
412 1 1    7.896  -1.142  -0.595
413 1 1   -5.422  -1.125   5.774
414 1 1    0.098  -1.108  -7.922
415 1 1    5.281  -1.092   5.909
416 1 1   -7.888  -1.075  -0.790
417 1 1    6.352  -1.058  -4.747
418 1 1   -1.478  -1.042   7.793
419 1 1   -4.176  -1.025  -6.746
420 1 1    7.638  -1.008   2.155
421 1 1   -7.089  -0.992   3.572
422 1 1    2.816  -0.975  -7.424
423 1 1    2.940  -0.958   7.378
424 1 1   -7.153  -0.942  -3.456
425 1 1    7.611  -0.925  -2.285
426 1 1   -4.070  -0.908   6.827
427 1 1   -1.611  -0.892  -7.785
428 1 1    6.448  -0.875   4.653
429 1 1   -7.900  -0.858   0.925
430 1 1    5.202  -0.842  -6.020
431 1 1    0.231  -0.825   7.954
432 1 1   -5.544  -0.808  -5.710
433 1 1    7.947  -0.792   0.466
434 1 1   -6.176  -0.775   5.026
435 1 1    1.159  -0.758  -7.879
436 1 1    4.468  -0.742   6.594
437 1 1   -7.751  -0.725  -1.844
438 1 1    6.962  -0.708  -3.876
439 1 1   -2.516  -0.692   7.563
440 1 1   -3.254  -0.675  -7.277
441 1 1    7.316  -0.658   3.168
442 1 1   -7.536  -0.642   2.606
443 1 1    3.797  -0.625  -7.014
444 1 1    1.938  -0.608   7.738
445 1 1   -6.657  -0.592  -4.397
446 1 1    7.880  -0.575  -1.254
447 1 1   -4.964  -0.558   6.249
448 1 1   -0.561  -0.542  -7.962
449 1 1    5.793  -0.525   5.493
450 1 1   -7.983  -0.508  -0.137
451 1 1    5.980  -0.492  -5.292
452 1 1   -0.835  -0.475   7.942
453 1 1   -4.750  -0.458  -6.421
454 1 1    7.841  -0.442   1.526
455 1 1   -6.813  -0.425   4.171
456 1 1    2.207  -0.408  -7.679
457 1 1    3.560  -0.392   7.153
458 1 1   -7.458  -0.375  -2.870
459 1 1    7.439  -0.358  -2.922
460 1 1   -3.512  -0.342   7.180
461 1 1   -2.261  -0.325  -7.667
462 1 1    6.847  -0.308   4.127
463 1 1   -7.837  -0.292   1.582
464 1 1    4.710  -0.275  -6.461
465 1 1    0.891  -0.258   7.946
466 1 1   -6.025  -0.242  -5.258
467 1 1    7.995  -0.225  -0.193
468 1 1   -5.765  -0.208   5.543
469 1 1    0.507  -0.192  -7.982
470 1 1    5.018  -0.175   6.228
471 1 1   -7.907  -0.158  -1.203
472 1 1    6.643  -0.142  -4.455
473 1 1   -1.890  -0.125   7.773
474 1 1   -3.857  -0.108  -7.008
475 1 1    7.578  -0.092   2.562
476 1 1   -7.319  -0.075   3.230
477 1 1    3.215  -0.058  -7.325
478 1 1    2.578  -0.042   7.573
479 1 1   -7.016  -0.025  -3.843
480 1 1    7.770  -0.008  -1.906
481 1 1   -4.442   0.008   6.654
482 1 1   -1.219   0.025  -7.907
483 1 1    6.240   0.042   5.006
484 1 1   -7.983   0.058   0.523
485 1 1    5.533   0.075  -5.778
486 1 1   -0.177   0.092   7.998
487 1 1   -5.272   0.108  -6.016
488 1 1    7.951   0.125   0.875
489 1 1   -6.454   0.142   4.725
490 1 1    1.567   0.158  -7.843
491 1 1    4.143   0.175   6.842
492 1 1   -7.676   0.192  -2.246
493 1 1    7.177   0.208  -3.528
494 1 1   -2.908   0.225   7.449
495 1 1   -2.887   0.242  -7.457
496 1 1    7.165   0.258   3.548
497 1 1   -7.680   0.275   2.224
498 1 1    4.160   0.292  -6.827
499 1 1    1.544   0.308   7.844
500 1 1   -6.436   0.325  -4.741
501 1 1    7.947   0.342  -0.852
502 1 1   -5.284   0.358   5.996
503 1 1   -0.154   0.375  -7.990
504 1 1    5.510   0.392   5.787
505 1 1   -7.971   0.408  -0.545
506 1 1    6.245   0.425  -4.982
507 1 1   -1.240   0.442   7.891
508 1 1   -4.416   0.458  -6.655
509 1 1    7.751   0.475   1.924
510 1 1   -7.014   0.492   3.816
511 1 1    2.594   0.508  -7.551
512 1 1    3.187   0.525   7.319
513 1 1   -7.293   0.542  -3.243
514 1 1    7.567   0.558  -2.534
515 1 1   -3.867   0.575   6.979
516 1 1   -1.863   0.592  -7.758
517 1 1    6.613   0.608   4.461
518 1 1   -7.888   0.625   1.177
519 1 1    5.021   0.642  -6.195
520 1 1    0.483   0.658   7.958
521 1 1   -5.731   0.675  -5.541
522 1 1    7.967   0.692   0.215
523 1 1   -6.019   0.708   5.222
524 1 1    0.910   0.725  -7.915
525 1 1    4.674   0.742   6.450
526 1 1   -7.802   0.758  -1.598
527 1 1    6.831   0.775  -4.091
528 1 1   -2.273   0.792   7.629
529 1 1   -3.477   0.808  -7.160
530 1 1    7.398   0.825   2.930
531 1 1   -7.433   0.842   2.836
532 1 1    3.564   0.858  -7.111
533 1 1    2.174   0.875   7.649
534 1 1   -6.769   0.892  -4.170
535 1 1    7.806   0.908  -1.497
536 1 1   -4.744   0.925   6.375
537 1 1   -0.808   0.942  -7.903
538 1 1    5.933   0.958   5.280
539 1 1   -7.940   0.975   0.114
540 1 1    5.776   0.992  -5.446
541 1 1   -0.580   1.008   7.915
542 1 1   -4.917   1.025  -6.226
543 1 1    7.830   1.042   1.269
544 1 1   -6.629   1.058   4.352
545 1 1    1.948   1.075  -7.684
546 1 1    3.753   1.092   6.980
547 1 1   -7.480   1.108  -2.611
548 1 1    7.277   1.125  -3.127
549 1 1   -3.253   1.142   7.219
550 1 1   -2.477   1.158  -7.518
551 1 1    6.903   1.175   3.869
552 1 1   -7.701   1.192   1.809
553 1 1    4.455   1.208  -6.534
554 1 1    1.128   1.225   7.825
555 1 1   -6.116   1.242  -5.006
556 1 1    7.888   1.258  -0.440
557 1 1   -5.518   1.275   5.651
558 1 1    0.251   1.292  -7.891
559 1 1    5.143   1.308   5.986
560 1 1   -7.833   1.325  -0.940
561 1 1    6.408   1.342  -4.597
562 1 1   -1.620   1.358   7.716
563 1 1   -4.016   1.375  -6.781
564 1 1    7.539   1.392   2.286
565 1 1   -7.101   1.408   3.405
566 1 1    2.934   1.425  -7.305
567 1 1    2.769   1.442   7.366
568 1 1   -7.015   1.458  -3.559
569 1 1    7.574   1.475  -2.113
570 1 1   -4.155   1.492   6.671
571 1 1   -1.442   1.508  -7.723
572 1 1    6.277   1.525   4.719
573 1 1   -7.813   1.542   0.760
574 1 1    5.245   1.558  -5.836
575 1 1    0.074   1.575   7.843
576 1 1   -5.350   1.592  -5.731
577 1 1    7.813   1.608   0.611
578 1 1   -6.171   1.625   4.825
579 1 1    1.291   1.642  -7.723
580 1 1    4.263   1.658   6.563
581 1 1   -7.573   1.675  -1.959
582 1 1    6.905   1.692  -3.670
583 1 1   -2.611   1.708   7.366
584 1 1   -3.049   1.725  -7.192
585 1 1    7.103   1.742   3.242
586 1 1   -7.424   1.758   2.406
587 1 1    3.847   1.775  -6.786
588 1 1    1.746   1.792   7.599
589 1 1   -6.417   1.808  -4.421
590 1 1    7.715   1.825  -1.074
591 1 1   -4.960   1.842   6.000
592 1 1   -0.395   1.858  -7.771
593 1 1    5.538   1.875   5.460
594 1 1   -7.768   1.892  -0.285
595 1 1    5.917   1.908  -5.034
596 1 1   -0.962   1.925   7.705
597 1 1   -4.493   1.942  -6.328
598 1 1    7.583   1.958   1.631
599 1 1   -6.689   1.975   3.918
600 1 1    2.285   1.992  -7.404
601 1 1    3.314   2.008   6.999
602 1 1   -7.167   2.025  -2.920
603 1 1    7.253   2.042  -2.687
604 1 1   -3.531   2.058   6.877
605 1 1   -2.040   2.075  -7.452
606 1 1    6.534   2.092   4.114
607 1 1   -7.593   2.108   1.379
608 1 1    4.664   2.125  -6.142
609 1 1    0.709   2.142   7.675
610 1 1   -5.704   2.158  -5.177
611 1 1    7.699   2.175  -0.035
612 1 1   -5.649   2.192   5.223
613 1 1    0.637   2.208  -7.663
614 1 1    4.704   2.225   6.077
615 1 1   -7.568   2.242  -1.303
616 1 1    6.456   2.258  -4.149
617 1 1   -1.957   2.275   7.416
618 1 1   -3.564   2.292  -6.786
619 1 1    7.207   2.308   2.594
620 1 1   -7.062   2.325   2.953
621 1 1    3.210   2.342  -6.943
622 1 1    2.321   2.358   7.283
623 1 1   -6.627   2.375  -3.800
624 1 1    7.448   2.392  -1.674
625 1 1   -4.359   2.408   6.261
626 1 1   -1.015   2.425  -7.556
627 1 1    5.848   2.442   4.883
628 1 1   -7.605   2.458   0.350
629 1 1    5.368   2.475  -5.391
630 1 1   -0.316   2.492   7.596
631 1 1   -4.894   2.508  -5.810
632 1 1    7.528   2.525   0.978
633 1 1   -6.207   2.542   4.361
634 1 1    1.630   2.558  -7.403
635 1 1    3.796   2.575   6.554
636 1 1   -7.221   2.592  -2.267
637 1 1    6.851   2.608  -3.204
638 1 1   -2.885   2.625   6.985
639 1 1   -2.588   2.642  -7.094
640 1 1    6.695   2.658   3.480
641 1 1   -7.282   2.675   1.955
642 1 1    4.045   2.692  -6.355
643 1 1    1.309   2.708   7.413
644 1 1   -5.968   2.725  -4.578
645 1 1    7.487   2.742  -0.655
646 1 1   -5.074   2.758   5.536
647 1 1    0.002   2.775  -7.503
648 1 1    5.063   2.792   5.530
649 1 1   -7.462   2.808  -0.657
650 1 1    5.941   2.825  -4.552
651 1 1   -1.305   2.842   7.364
652 1 1   -4.009   2.858  -6.306
653 1 1    7.209   2.875   1.940
654 1 1   -6.621   2.892   3.436
655 1 1    2.558   2.908  -7.000
656 1 1    2.839   2.925   6.884
657 1 1   -6.737   2.942  -3.155
658 1 1    7.093   2.958  -2.223
659 1 1   -3.725   2.975   6.424
660 1 1   -1.591   2.992  -7.247
661 1 1    6.063   3.008   4.265
662 1 1   -7.345   3.025   0.950
663 1 1    4.770   3.042  -5.656
664 1 1    0.303   3.058   7.386
665 1 1   -5.208   3.075  -5.236
666 1 1    7.370   3.092   0.343
667 1 1   -5.661   3.108   4.721
668 1 1    0.984   3.125  -7.298
669 1 1    4.200   3.142   6.040
670 1 1   -7.171   3.158  -1.615
671 1 1    6.372   3.175  -3.649
672 1 1   -2.231   3.192   6.988
673 1 1   -3.072   3.208  -6.654
674 1 1    6.753   3.225   2.828
675 1 1   -6.883   3.242   2.473
676 1 1    3.401   3.258  -6.467
677 1 1    1.859   3.275   7.058
678 1 1   -6.132   3.292  -3.945
679 1 1    7.179   3.308  -1.232
680 1 1   -4.457   3.325   5.752
681 1 1   -0.598   3.342  -7.244
682 1 1    5.329   3.358   4.932
683 1 1   -7.253   3.375  -0.037
684 1 1    5.368   3.392  -4.867
685 1 1   -0.670   3.408   7.207
686 1 1   -4.369   3.425  -5.760
687 1 1    7.105   3.442   1.295
688 1 1   -6.107   3.458   3.840
689 1 1    1.906   3.475  -6.949
690 1 1    3.285   3.492   6.405
691 1 1   -6.741   3.508  -2.501
692 1 1    6.652   3.525  -2.706
693 1 1   -3.074   3.542   6.481
694 1 1   -2.109   3.558  -6.848
695 1 1    6.174   3.575   3.620
696 1 1   -6.990   3.592   1.499
697 1 1    4.136   3.608  -5.820
698 1 1    0.880   3.625   7.077
699 1 1   -5.423   3.642  -4.618
700 1 1    7.110   3.658  -0.257
701 1 1   -5.063   3.675   4.986
702 1 1    0.364   3.692  -7.088
703 1 1    4.514   3.708   5.466
704 1 1   -7.012   3.725  -0.980
705 1 1    5.825   3.742  -4.009
706 1 1   -1.585   3.758   6.882
707 1 1   -3.475   3.775  -6.138
708 1 1    6.700   3.792   2.176
709 1 1   -6.402   3.808   2.918
710 1 1    2.746   3.825  -6.468
711 1 1    2.341   3.842   6.615
712 1 1   -6.187   3.858  -3.292
713 1 1    6.777   3.875  -1.749
714 1 1   -3.810   3.892   5.860
715 1 1   -1.147   3.908  -6.885
716 1 1    5.489   3.925   4.297
717 1 1   -6.941   3.942   0.539
718 1 1    4.747   3.958  -5.079
719 1 1   -0.070   3.975   6.942
720 1 1   -4.632   3.992  -5.159
721 1 1    6.890   4.008   0.674
722 1 1   -5.529   4.025   4.151
723 1 1    1.271   4.042  -6.786
724 1 1    3.642   4.058   5.854
725 1 1   -6.630   4.075  -1.854
726 1 1    6.132   4.092  -3.107
727 1 1   -2.419   4.108   6.424
728 1 1   -2.552   4.125  -6.362
729 1 1    6.170   4.142   2.963
730 1 1   -6.541   4.158   1.980
731 1 1    3.481   4.175  -5.870
732 1 1    1.396   4.192   6.669
733 1 1   -5.526   4.208  -3.969
734 1 1    6.745   4.225  -0.805
735 1 1   -4.423   4.242   5.142
736 1 1   -0.212   4.258  -6.769
737 1 1    4.721   4.275   4.841
738 1 1   -6.741   4.292  -0.379
739 1 1    5.219   4.308  -4.267
740 1 1   -0.964   4.325   6.661
741 1 1   -3.782   4.342  -5.554
742 1 1    6.530   4.358   1.538
743 1 1   -5.844   4.375   3.272
744 1 1    2.096   4.392  -6.350
745 1 1    2.739   4.408   6.088
746 1 1   -6.122   4.425  -2.635
747 1 1    6.283   4.442  -2.189
748 1 1   -3.149   4.458   5.849
749 1 1   -1.626   4.475  -6.429
750 1 1    5.532   4.492   3.636
751 1 1   -6.524   4.508   1.054
752 1 1    4.092   4.525  -5.175
753 1 1    0.478   4.542   6.568
754 1 1   -4.781   4.558  -4.513
755 1 1    6.562   4.575   0.098
756 1 1   -4.896   4.592   4.353
757 1 1    0.669   4.608  -6.505
758 1 1    3.894   4.625   5.239
759 1 1   -6.399   4.642  -1.230
760 1 1    5.539   4.658  -3.409
761 1 1   -1.779   4.675   6.243
762 1 1   -2.901   4.692  -5.794
763 1 1    6.042   4.708   2.309
764 1 1   -6.003   4.725   2.374
765 1 1    2.818   4.742  -5.795
766 1 1    1.833   4.758   6.164
767 1 1   -5.505   4.775  -3.301
768 1 1    6.277   4.792  -1.282
769 1 1   -3.755   4.808   5.175
770 1 1   -0.726   4.825  -6.340
771 1 1    4.808   4.842   4.176
772 1 1   -6.354   4.858   0.168
773 1 1    4.562   4.875  -4.407
774 1 1   -0.387   4.892   6.318
775 1 1   -3.975   4.908  -4.910
776 1 1    6.235   4.925   0.934
777 1 1   -5.217   4.942   3.516
778 1 1    1.469   4.958  -6.104
779 1 1    3.033   4.975   5.482
780 1 1   -5.927   4.992  -1.989
781 1 1    5.701   5.008  -2.532
782 1 1   -2.489   5.025   5.706
783 1 1   -2.015   5.042  -5.876
784 1 1    5.443   5.058   2.965
785 1 1   -6.003   5.075   1.487
786 1 1    3.414   5.092  -5.140
787 1 1    0.952   5.108   6.083
788 1 1   -4.800   5.125  -3.833
789 1 1    6.115   5.142  -0.415
790 1 1   -4.219   5.158   4.426
791 1 1    0.121   5.175  -6.100
792 1 1    4.022   5.192   4.569
793 1 1   -6.037   5.208  -0.650
794 1 1    4.880   5.225  -3.590
795 1 1   -1.170   5.242   5.929
796 1 1   -3.135   5.258  -5.150
797 1 1    5.776   5.275   1.676
798 1 1   -5.378   5.292   2.659
799 1 1    2.164   5.308  -5.580
800 1 1    2.168   5.325   5.563
801 1 1   -5.343   5.342  -2.630
802 1 1    5.702   5.358  -1.665
803 1 1   -3.072   5.375   5.067
804 1 1   -1.155   5.392  -5.796
805 1 1    4.754   5.408   3.485
806 1 1   -5.845   5.425   0.640
807 1 1    3.867   5.442  -4.408
808 1 1    0.126   5.458   5.847
809 1 1   -4.032   5.475  -4.215
810 1 1    5.805   5.492   0.384
811 1 1   -4.527   5.508   3.628
812 1 1    0.885   5.525  -5.718
813 1 1    3.201   5.542   4.800
814 1 1   -5.587   5.558  -1.374
815 1 1    5.034   5.575  -2.754
816 1 1   -1.846   5.592   5.415
817 1 1   -2.290   5.608  -5.225
818 1 1    5.203   5.625   2.300
819 1 1   -5.374   5.642   1.814
820 1 1    2.730   5.658  -4.953
821 1 1    1.329   5.675   5.480
822 1 1   -4.668   5.692  -3.133
823 1 1    5.542   5.708  -0.840
824 1 1   -3.508   5.725   4.349
825 1 1   -0.350   5.742  -5.560
826 1 1    4.001   5.758   3.851
827 1 1   -5.535   5.775  -0.137
828 1 1    4.160   5.792  -3.626
829 1 1   -0.616   5.808   5.467
830 1 1   -3.228   5.825  -4.433
831 1 1    5.357   5.842   1.084
832 1 1   -4.667   5.858   2.810
833 1 1    1.539   5.875  -5.207
834 1 1    2.375   5.892   4.863
835 1 1   -5.019   5.908  -1.975
836 1 1    5.018   5.925  -1.928
837 1 1   -2.389   5.942   4.794
838 1 1   -1.472   5.958  -5.132
839 1 1    4.535   5.975   2.780
840 1 1   -5.204   5.992   1.010
841 1 1    3.143   6.008  -4.245
842 1 1    0.547   6.025   5.234
843 1 1   -3.925   6.042  -3.477
844 1 1    5.224   6.058  -0.087
845 1 1   -3.779   6.075   3.580
846 1 1    0.367   6.092  -5.173
847 1 1    3.211   6.108   4.047
848 1 1   -5.082   6.125  -0.812
849 1 1    4.279   6.142  -2.823
850 1 1   -1.243   6.158   4.953
851 1 1   -2.419   6.175  -4.474
852 1 1    4.787   6.192   1.658
853 1 1   -4.631   6.208   2.003
854 1 1    2.054   6.225  -4.586
855 1 1    1.577   6.242   4.749
856 1 1   -4.353   6.258  -2.426
857 1 1    4.828   6.275  -1.146
858 1 1   -2.774   6.292   4.089
859 1 1   -0.713   6.308  -4.868
860 1 1    3.798   6.325   3.094
861 1 1   -4.869   6.342   0.283
862 1 1    3.384   6.358  -3.482
863 1 1   -0.143   6.375   4.831
864 1 1   -3.144   6.392  -3.642
865 1 1    4.756   6.408   0.559
866 1 1   -3.867   6.425   2.787
867 1 1    0.964   6.442  -4.645
868 1 1    2.415   6.458   4.057
869 1 1   -4.499   6.475  -1.353
870 1 1    4.211   6.492  -2.031
871 1 1   -1.724   6.508   4.321
872 1 1   -1.639   6.525  -4.329
873 1 1    4.111   6.542   2.074
874 1 1   -4.410   6.558   1.241
875 1 1    2.401   6.575  -3.874
876 1 1    0.842   6.592   4.454
877 1 1   -3.610   6.608  -2.701
878 1 1    4.462   6.625  -0.445
879 1 1   -2.973   6.642   3.324
880 1 1   -0.052   6.658  -4.434
881 1 1    3.017   6.675   3.216
882 1 1   -4.372   6.692  -0.332
883 1 1    3.428   6.708  -2.693
884 1 1   -0.704   6.725   4.275
885 1 1   -2.354   6.742  -3.607
886 1 1    4.147   6.758   1.062
887 1 1   -3.752   6.775   2.005
888 1 1    1.403   6.792  -3.988
889 1 1    1.648   6.808   3.864
890 1 1   -3.801   6.825  -1.724
891 1 1    3.941   6.842  -1.287
892 1 1   -2.023   6.858   3.588
893 1 1   -0.925   6.875  -3.985
894 1 1    3.351   6.892   2.297
895 1 1   -3.994   6.908   0.566
896 1 1    2.545   6.925  -3.093
897 1 1    0.211   6.942   3.971
898 1 1   -2.817   6.958  -2.765
899 1 1    3.916   6.975   0.135
900 1 1   -2.956   6.992   2.526
901 1 1    0.469   7.008  -3.829
902 1 1    2.223   7.025   3.116
903 1 1   -3.714   7.042  -0.790
904 1 1    3.245   7.058  -1.911
905 1 1   -1.093   7.075   3.571