LAMMPS (9 Nov 2011)

dimension       3
units           lj
atom_style      bond

read_data       init.dat
  1 = max bonds/atom
  orthogonal box = (-24 -24 -24) to (72 72 72)
  1 by 1 by 1 processor grid
  10240 atoms
  2400 bonds
  2 = max # of 1-2 neighbors
  2 = max # of 1-3 neighbors
  4 = max # of 1-4 neighbors
  6 = max # of special neighbors

group c1 id <> 1 980
980 atoms in group c1
group b1 id <> 981 1280
300 atoms in group b1

group c2 id <> 1281 2260
980 atoms in group c2
group b2 id <> 2261 2560
300 atoms in group b2

group c3 id <> 2561 3540
980 atoms in group c3
group b3 id <> 3541 3840
300 atoms in group b3

group c4 id <> 3841 4820
980 atoms in group c4
group b4 id <> 4821 5120
300 atoms in group b4

group c5 id <> 5121 6100
980 atoms in group c5
group b5 id <> 6101 6400
300 atoms in group b5

group c6 id <> 6401 7380
980 atoms in group c6
group b6 id <> 7381 7680
300 atoms in group b6

group c7 id <> 7681 8660
980 atoms in group c7
group b7 id <> 8661 8960
300 atoms in group b7

group c8 id <> 8961 9940
980 atoms in group c8
group b8 id <> 9941 10240
300 atoms in group b8

group core union c1 c2 c3 c4 c5 c6 c7 c8
7840 atoms in group core
group brush union b1 b2 b3 b4 b5 b6 b7 b8
2400 atoms in group brush

neighbor        2.0 bin
neigh_modify    delay 10
neigh_modify    exclude group c1 c1
neigh_modify    exclude group c2 c2
neigh_modify    exclude group c3 c3
neigh_modify    exclude group c4 c4
neigh_modify    exclude group c5 c5
neigh_modify    exclude group c6 c6
neigh_modify    exclude group c7 c7
neigh_modify    exclude group c8 c8

bond_style      fene
bond_coeff      1 30.0 1.5 1.0 1.0
special_bonds   fene
  2 = max # of 1-2 neighbors
  2 = max # of special neighbors

# LJ potentials
#pair_style      lj/cut 2.5
#pair_coeff      * * 1.0 1.0 1.0 #no attr
pair_style soft 2.5
pair_coeff * * 10

velocity        all create 0.6 4928459 dist gaussian
fix             1 brush nve
fix             2 brush langevin 1.0 1.0 1.0 654321
fix             3 core rigid molecule langevin 1.0 2.0 1.0 428984
8 rigid bodies with 7840 atoms

timestep        0.005
thermo          10

dump            1 all atom 100 dbrush.lammpstrj
dump_modify     1 sort id
run             10000
Memory usage per processor = 4.94567 Mbytes
Step Temp E_pair E_mol TotEng Press 
       0   0.59388997   0.48193943    4.8839434    5.5759772 -0.066877081 
      10   0.48251548   0.48038381    4.9393443    5.5904226 -0.033900035 
      20   0.42459605   0.47695186      4.97939    5.6065469 -0.040571271 
      30   0.42048819   0.47834456    4.9984834    5.6255798 -0.023919722 
      40   0.46170049   0.48167567    5.0000877    5.6450944 -0.014087457 
      50   0.52526028   0.48842065    4.9882387    5.6624753 -0.027688253 
      60   0.59369663   0.49627143     4.971261    5.6775585 -0.0041237238 
      70     0.628371   0.50398193    4.9679987     5.694273 -0.020294149 
      80   0.62347222   0.51024159    4.9756231    5.7064241 -0.0087621047 
      90   0.64132999    0.5137257    4.9775144    5.7181169 -0.018752142 
     100   0.66685519   0.51817766       4.9793    5.7333842  -0.01144647 
     110    0.7101916   0.52498444    4.9687828    5.7450044 -0.0010870979 
     120   0.74743257   0.53261488    4.9583597    5.7553861 -0.0026966835 
     130   0.75343721    0.5401556     4.957054    5.7637453 -0.0065659865 
     140   0.78784343   0.54752991    4.9480707     5.774308 0.0024589097 
     150   0.79961201    0.5545381    4.9440164    5.7814251 -0.024128276 
     160   0.81153374   0.56253837    4.9359835    5.7856098 -0.0014696706 
     170   0.83043639   0.57095809    4.9316626    5.7963957 -0.024104756 
     180   0.84449625   0.57841495    4.9247713     5.801935 -0.0080631079 
     190   0.84760266   0.58480935    4.9217284    5.8063855 0.0076485211 
     200   0.84394606   0.59305628    4.9205054    5.8121159  -0.01607813 
     210    0.8507245   0.59969019    4.9199883    5.8206306 -0.010001699 
     220   0.85372303   0.60460561    4.9189616    5.8255801 0.0012171881 
     230   0.86573879   0.61039096     4.916932    5.8335865 -0.014060426 
     240   0.87926397   0.61652802    4.9139174    5.8414936 -0.014734187 
     250    0.8662504   0.62175873     4.914909    5.8431122 -0.002112471 
     260   0.86138954   0.62587687    4.9154591    5.8460609  0.010371819 
     270   0.86298274   0.62781161     4.915377    5.8484772 -0.0031953242 
     280   0.85297293   0.63020057    4.9156625    5.8476106  -0.01392205 
     290    0.8371582   0.63198456    4.9219119    5.8500494 -0.0066762216 
     300   0.83518053   0.63356884    4.9247171    5.8537392 0.0032466897 
     310   0.86434739   0.63613563    4.9130363    5.8549432 -0.0057097988 
     320   0.88602203   0.63813242     4.909016    5.8605874 -0.0084718149 
     330     0.886582   0.63965614    4.9138006    5.8670938 -0.008582935 
     340    0.8602228   0.64140598    4.9213383    5.8670565 -0.006617174 
     350   0.84717934    0.6392919    4.9295853    5.8685751 -0.027278801 
     360    0.8478447   0.63734616    4.9379735     5.875253  0.013149298 
     370   0.86318057   0.63893375    4.9341598    5.8784521  0.016430219 
     380   0.88601918   0.64440969    4.9232275    5.8810751 -0.010229844 
     390   0.90611089   0.64592075    4.9199635    5.8864298 -0.015438877 
     400   0.92554747   0.64611764    4.9209252    5.8944643 0.0093513072 
     410   0.89583367   0.64715547    4.9306174    5.8946827 -0.013204148 
     420   0.88940066    0.6470705    4.9364986    5.8982032 -0.0084461614 
     430   0.89848592   0.64928045    4.9357805    5.9029091 -0.0053658879 
     440   0.92478324   0.65016427    4.9269077    5.9042231 -0.017762784 
     450   0.91935082   0.65020825    4.9294411    5.9048787 0.0041677011 
     460   0.92944374   0.65175931     4.927675    5.9082341 -0.00015758239 
     470   0.93446933   0.65190869    4.9281129    5.9105992  0.006887982 
     480   0.90930098   0.65190488    4.9364343    5.9100133 -0.030935193 
     490   0.89762069   0.65326175    4.9423961    5.9131999  0.010049187 
     500   0.91224592   0.65510252    4.9391111    5.9169296 -0.0037077375 
     510    0.9282927   0.65894187    4.9323121    5.9196466  0.017224403 
     520    0.9369088   0.66082463    4.9315146    5.9237799 -0.0032916441 
     530   0.95032341   0.66093305    4.9305004    5.9276197 0.0048703473 
     540   0.94084874    0.6613523    4.9349397    5.9291264 -0.0098505088 
     550   0.93968623   0.66069095     4.937161    5.9302751 -0.021497967 
     560    0.9254397   0.66179788    4.9458276    5.9350088 0.0039324503 
     570   0.92921771   0.66114242     4.944569    5.9344313 -0.018008188 
     580   0.95902342   0.66201744    4.9354731    5.9367545 0.0012286136 
     590   0.95548996   0.66365681    4.9391294    5.9408001 0.00040747204 
     600    0.9818926   0.66532543    4.9326109    5.9452904 -0.016789492 
     610   0.96713936   0.66593491    4.9389733    5.9470432 0.0011886444 
     620   0.98449268   0.66496178    4.9419265    5.9551621 -0.0024282189 
     630   0.98751866   0.66331462    4.9383126    5.9509716 -0.0053738312 
     640    0.9559558   0.66395245    4.9484586    5.9505898  0.012029967 
     650   0.97129133    0.6642105    4.9443272    5.9521415 -0.011138574 
     660   0.97804009   0.66403969    4.9401706    5.9502015  0.013601692 
     670   0.96470299   0.66530972    4.9456193    5.9522021 -0.015130616 
     680   0.97349677   0.66478897    4.9418872    5.9510602  0.010062066 
     690   0.95189274   0.66451188    4.9458146    5.9470678  0.013783707 
     700    0.9423966   0.66597688    4.9487083    5.9480672 0.0036395364 
     710   0.95169145   0.66913512    4.9404681    5.9462734 -0.0024854883 
     720   0.95564523   0.67334868    4.9331663    5.9445838  0.013594233 
     730    0.9567881    0.6737812    4.9339339    5.9461882 -0.0039700547 
     740   0.94496381   0.67401555    4.9385462     5.946852 -0.0021893812 
     750   0.94640182   0.67203919    4.9410975    5.9479356 0.0021443899 
     760   0.94190681   0.67021338    4.9445033    5.9479254 -0.018420195 
     770   0.97402266   0.66915192    4.9382192    5.9519411 0.0094882526 
     780   0.98216605   0.66850027    4.9368825    5.9528336  0.012996437 
     790   0.98085792   0.66874301    4.9353157    5.9510468 -0.0075703708 
     800   0.98211346   0.66719269     4.942192    5.9568169  0.014455379 
     810     0.987277   0.66614437      4.94182    5.9572233 -0.008561373 
     820   0.97456267   0.66633049    4.9456581    5.9567496 -0.0052704165 
     830   0.96941454    0.6653851    4.9483556    5.9566806 -0.0081095081 
     840   0.98387903   0.66745222    4.9481833    5.9636923 0.0092546932 
     850   0.98502715   0.66762751    4.9484054    5.9644958 0.0052149953 
     860    1.0087111   0.66677086    4.9464463    5.9700586  0.022714271 
     870    1.0052308     0.666259    4.9494014    5.9712706 -0.0043922448 
     880    1.0019744   0.66583667    4.9474338    5.9677286   0.03091839 
     890    1.0190966   0.66626569    4.9406881    5.9674691 0.0015920966 
     900     1.008934   0.66746347    4.9454842    5.9698679 0.0015334056 
     910   0.98440794   0.66765033    4.9500508    5.9659451 0.0024410554 
     920   0.98234039   0.66937322    4.9490669    5.9659526 -0.014852971 
     930   0.99500741   0.67113775    4.9470158    5.9701472 0.0093805332 
     940    1.0059792   0.67182661    4.9448253    5.9725269 -0.015229004 
     950      1.00236   0.67333445    4.9436081    5.9715372 -0.018217204 
     960   0.98605112   0.67535327    4.9440223    5.9682008 -0.010641075 
     970   0.98489162   0.67533955    4.9430594     5.966814 -0.0081060634 
     980    1.0030784   0.67405823     4.945568     5.974475 0.00053803312 
     990   0.98050724     0.670938     4.953094     5.970896  0.013659779 
    1000     1.003565   0.66993282    4.9472965    5.9722502 -0.0068164612 
    1010   0.98485349   0.67224985    4.9481327    5.9687841 0.0010985732 
    1020   0.98751695   0.67246772    4.9483294    5.9701409 -0.013174977 
    1030    1.0193699    0.6736082    4.9392562    5.9734764 -0.021851936 
    1040   0.99023931   0.67564051    4.9441956    5.9701429 -0.0047082058 
    1050   0.99327125   0.67547635    4.9472589    5.9741146 0.0070293105 
    1060     1.007628   0.67692074    4.9399992    5.9733782 0.0096106484 
    1070    1.0085979   0.67813512    4.9396988    5.9746353 0.00015572402 
    1080   0.99642575   0.67667633    4.9478296    5.9770012 0.0086332585 
    1090   0.98883655   0.67540008    4.9509721    5.9761827 -0.00023431188 
    1100   0.99221613   0.67392203     4.951259    5.9761872  0.019628326 
    1110   0.99169908   0.67460219    4.9532506    5.9786761 0.0078470602 
    1120    1.0113954   0.67643947     4.946305    5.9805355 -0.0017236049 
    1130    1.0129879   0.67792388    4.9456071    5.9818853 -0.0045490357 
    1140    1.0134172   0.67902238    4.9425672    5.9800957 -0.017600253 
    1150    1.0176496   0.68062236    4.9380459    5.9786718 -0.0063767922 
    1160    1.0043316   0.67765889    4.9453752    5.9783262 -0.0018921624 
    1170    1.0042482   0.67571287     4.945262    5.9762375 -0.013026821 
    1180   0.98646576   0.67392247    4.9510037    5.9738981  0.003596705 
    1190   0.99971391   0.67407186    4.9456035    5.9733339 -0.0077302179 
    1200   0.99360133   0.67305992    4.9485806    5.9731367 -0.021998525 
    1210    1.0077714   0.67177865    4.9462721    5.9745597 0.0040086759 
    1220   0.99116838   0.67395838    4.9478502    5.9724441  0.021138077 
    1230    0.9900027   0.67423289    4.9481422    5.9725982  0.011970204 
    1240   0.99136839    0.6746135    4.9493573     5.974677 -0.014115978 
    1250   0.96834952   0.67476163    4.9564262    5.9737509  0.011793694 
    1260    0.9947303    0.6743916    4.9492695    5.9755566 -4.4051967e-05 
    1270    1.0167394   0.67605376    4.9419942    5.9777294 0.0080957189 
    1280    1.0149243   0.67588694    4.9444966    5.9794229  0.005421313 
    1290    1.0056725   0.67677536    4.9492675    5.9818093  0.016795463 
    1300    1.0072637   0.67940774    4.9476276    5.9833648 -0.0038159411 
    1310    1.0146133   0.68092785    4.9444434    5.9843006  0.015365697 
    1320   0.99871991   0.68063142    4.9450563    5.9789947 -0.0028295737 
    1330   0.98819408   0.68195946    4.9465257    5.9780684   0.01774759 
    1340   0.98362688   0.68214288    4.9462431    5.9763536 -0.0021217755 
    1350   0.99663508   0.68095604    4.9414908    5.9750162 -0.012905537 
    1360    0.9837913   0.68089342    4.9419937    5.9709129 -0.0074105331 
    1370   0.98196044    0.6806563    4.9434372    5.9714716  0.022250092 
    1380   0.98277569   0.67986659    4.9432415    5.9707746 -0.00068927624 
    1390    0.9965142   0.67829983    4.9384966    5.9693231 0.0083262195 
    1400   0.98494799   0.67640154    4.9471881    5.9720246 0.0079269968 
    1410   0.97279108   0.67387376    4.9541074    5.9721155 0.0071497388 
    1420   0.96033537   0.67235485    4.9584401     5.970523 -0.011641128 
    1430   0.97486501   0.67399875    4.9467089    5.9655757  -0.01087905 
    1440   0.98743454   0.67616555      4.93828    5.9637602 0.0067857571 
    1450   0.99943325   0.67795559    4.9318147    5.9633295  0.019516362 
    1460   0.96969308   0.67821722    4.9382508    5.9595064 -0.010286126 
    1470   0.94392716   0.67430352    4.9471115    5.9553385   0.02552279 
    1480    0.9593585   0.67444888    4.9437048    5.9575361 -0.022596257 
    1490   0.96191318   0.67571016     4.943521    5.9595173 -0.0082063588 
    1500   0.98334581   0.67540203    4.9343405    5.9576107 -0.00036443398 
    1510   0.98882749   0.67450012    4.9317089    5.9560164  0.022777866 
    1520   0.97636747   0.67337555    4.9382781    5.9570531  0.019087223 
    1530   0.97554223   0.67224569    4.9415212    5.9588745  0.010127958 
    1540   0.97355719    0.6719396    4.9440562    5.9604012 0.0078671612 
    1550   0.97051968   0.67023746    4.9457958    5.9593641 -0.018901142 
    1560   0.97592616   0.67064855     4.945984    5.9618759 -0.023598713 
    1570    0.9927348   0.67325886     4.935956    5.9604045 -0.016620184 
    1580   0.99193902    0.6748931    4.9374308     5.963232 -0.016575782 
    1590    0.9896953   0.67336535    4.9376635    5.9611432 0.0008185917 
    1600   0.97897084   0.67382275    4.9389114    5.9590546 -0.0088474716 
    1610   0.98448428   0.67435994    4.9353764    5.9580073 -0.0049670378 
    1620   0.96689147   0.67635895    4.9426559    5.9610622 -0.013016962 
    1630   0.97619194   0.67648834    4.9367946    5.9586204 -0.0020683556 
    1640    0.9706423   0.67638833     4.938138    5.9579005  0.027986436 
    1650   0.98037776   0.67376996    4.9383019    5.9588901 -0.024380841 
    1660   0.98182296   0.67029649    4.9441771    5.9618031 -0.012614116 
    1670   0.98258072   0.66851207    4.9474402    5.9635498 -0.021029719 
    1680   0.96670781   0.66779353    4.9525177    5.9622936  0.010803976 
    1690    0.9843586   0.66723572    4.9457321    5.9611943 -0.0068972311 
    1700   0.99816552   0.66830624    4.9393912    5.9608082 -0.022391364 
    1710   0.98431776   0.66859716     4.943441    5.9602502 -0.0016209194 
    1720   0.97066662   0.66882927    4.9466994    5.9589114  0.019951703 
    1730   0.97666629   0.66889991    4.9464935    5.9608987 0.00086241787 
    1740   0.97115105   0.67079794    4.9474015    5.9617536  0.018363313 
    1750   0.99360012   0.67364852    4.9410443    5.9661886 0.0093449158 
    1760   0.99876324   0.67487063    4.9422911     5.970484 -0.0019490432 
    1770   0.98818996   0.67461514     4.946871     5.971068 -0.022031383 
    1780   0.98714732   0.67401536    4.9447788    5.9680072 0.0082813762 
    1790   0.97501245   0.67281112    4.9473167     5.965048 -0.019288902 
    1800   0.99480861   0.67260812    4.9407905    5.9653219  0.029343944 
    1810   0.99042227   0.67190097    4.9455028    5.9677753 0.0020133714 
    1820   0.98582642   0.67047593    4.9475877    5.9668094 -0.0086017455 
    1830   0.97904849     0.670978    4.9484294    5.9657553 -0.020549779 
    1840   0.96812684   0.67237334    4.9505847    5.9654423 0.0057074412 
    1850   0.98707625   0.67287507    4.9461265    5.9681894 0.00079116069 
    1860    1.0056324   0.67342166    4.9413529    5.9705269 -0.00043550698 
    1870   0.99296123   0.67344915    4.9418133    5.9665322 -0.002196635 
    1880   0.98128149   0.67233922     4.945521    5.9649982 -0.0049596843 
    1890   0.96095494   0.67218883    4.9501274    5.9622634 -0.0051056375 
    1900   0.97037634   0.67312195    4.9463643    5.9627664 0.0064053123 
    1910   0.98867602   0.67666596    4.9385145    5.9649342 0.0022672037 
    1920    0.9980588   0.67648214    4.9361337    5.9656889  0.012566091 
    1930   0.97261739   0.67630145    4.9418731    5.9622475   -0.0357673 
    1940    0.9824015   0.67460815    4.9437125    5.9658548 -0.012579646 
    1950   0.99195203   0.67536355    4.9429881    5.9692644 -0.0058634688 
    1960   0.98576981   0.67568253    4.9410449    5.9654532 0.0055173759 
    1970    0.9813842   0.67574016    4.9421025    5.9650169 -0.0034343667 
    1980   0.97905717   0.67584965    4.9423435    5.9645442 0.0039838134 
    1990   0.98632075   0.67448769    4.9412607     5.964669 0.0099472193 
    2000   0.99023428   0.67494965    4.9398217    5.9650764  0.010731987 
    2010   0.98060301   0.67725252    4.9444605    5.9686109  0.021572961 
    2020   0.95744364   0.67871801    4.9450907    5.9625137 -0.0058828771 
    2030   0.95845867   0.68289405    4.9403237    5.9622818   0.01841236 
    2040   0.95975108   0.68789231     4.936201    5.9636146 -0.0081420166 
    2050   0.96698155   0.69019274     4.932697    5.9649689 0.0051861892 
    2060   0.98741788   0.68995568    4.9298252    5.9690896 0.0046774138 
    2070     0.980637   0.68760898    4.9348759    5.9693948 0.0050437389 
    2080   0.96348938    0.6835456    4.9417561    5.9661455 -0.0041421139 
    2090    0.9589451   0.68041987    4.9476932    5.9673493 -0.012595155 
    2100   0.96520319   0.67834087    4.9494946    5.9692856  0.029414269 
    2110   0.99145077    0.6790119    4.9434834    5.9732307 0.0087763121 
    2120   0.99645928   0.68070618    4.9408552    5.9740686 0.0076427725 
    2130     1.009608   0.67957695    4.9423059    5.9790415 -0.020946627 
    2140   0.99936421   0.67722222    4.9493927    5.9801498 -0.0021390233 
    2150   0.99685646   0.67699259    4.9517656    5.9814059 0.00057630733 
    2160   0.97791236   0.67718614    4.9540293    5.9771615 -0.010285806 
    2170    1.0171168   0.67408001    4.9431016    5.9769966 -0.0031378381 
    2180   0.98920136   0.67290187    4.9556188    5.9784603 0.0083893764 
    2190    1.0025915   0.67060473     4.955159    5.9804403 -0.0029388132 
    2200   0.99629529   0.67155223    4.9580757    5.9820771 0.0010219953 
    2210    0.9969911   0.67327545    4.9485301    5.9745008 -0.021142004 
    2220    1.0073531   0.67476092    4.9473511     5.978473 -0.015389452 
    2230    1.0232619    0.6770665    4.9425225    5.9815779  0.013074055 
    2240    1.0168189   0.67561965    4.9442822    5.9796115 -0.013505431 
    2250   0.99125854   0.67464672     4.951096    5.9764101  0.023040421 
    2260   0.99207367   0.67610935    4.9493885    5.9764536 0.0037901254 
    2270    1.0080691   0.67757246     4.942385    5.9765717 0.0095786458 
    2280    1.0000498   0.67867692    4.9414721    5.9739263  0.015073437 
    2290    1.0005784   0.68025371    4.9410113    5.9752294 0.0098423987 
    2300    1.0041824    0.6817278    4.9382233    5.9751904 0.0061840236 
    2310   0.99597946   0.68244198    4.9409902    5.9757696 -0.016121911 
    2320    1.0081117   0.68111437    4.9407044    5.9784481  0.029791408 
    2330    1.0185308   0.67958652    4.9450377    5.9849394 0.0082198372 
    2340   0.97932601   0.67776436    4.9512437    5.9754542  0.011110411 
    2350    1.0027398   0.67582369    4.9437193     5.974272  0.010342562 
    2360   0.98562702   0.67682676    4.9464608    5.9719628 -0.012000289 
    2370   0.98779241   0.67921545    4.9436629    5.9723196  0.022437255 
    2380    1.0139933   0.68152809    4.9382098    5.9784479 0.0067802111 
    2390    1.0173288   0.68019135    4.9414649    5.9815462 -0.00058654523 
    2400    1.0069892   0.67668242    4.9521898    5.9851045 -0.017358056 
    2410   0.99882299   0.67667772    4.9543265    5.9843476 0.0081993437 
    2420    1.0144926   0.67651309    4.9503502      5.98575 -0.0030546107 
    2430   0.99933607   0.67768154    4.9528716     5.984078 0.0075947207 
    2440     1.018767   0.67999205    4.9474281     5.987819  0.011431953 
    2450    1.0102189    0.6814536    4.9442141    5.9830425 0.0043703531 
    2460    0.9964454   0.68176763    4.9457791     5.980049 -0.0070376755 
    2470   0.99639848   0.68180045     4.941584    5.9758702 0.0033123722 
    2480    1.0060118   0.68273625    4.9362873    5.9749101  0.016989252 
    2490   0.99003401   0.68341422     4.943445    5.9770934 -0.017162885 
    2500    1.0050627   0.68127255    4.9413149    5.9781382 -0.0059254289 
    2510   0.99640176   0.67752259    4.9466739    5.9766834 -0.0012773896 
    2520   0.97034873   0.67389311    4.9605627    5.9777262 -0.0090724064 
    2530   0.98542391   0.67202518    4.9566869    5.9773154 -0.0050136467 
    2540   0.98904366   0.67458484    4.9521681    5.9766368 0.0061538316 
    2550   0.99997058   0.67819887    4.9460036    5.9779519 -0.012047399 
    2560    1.0114884   0.68084837    4.9368457     5.975518 0.0012107974 
    2570   0.99897551    0.6810156    4.9378681     5.972281 -0.0058901115 
    2580   0.98557598   0.68102357    4.9428509    5.9725316 -0.00012439477 
    2590   0.97718833   0.68177394    4.9448151     5.972279 0.0020692825 
    2600   0.97848543   0.68202083    4.9484734     5.976643 -0.028887384 
    2610   0.99474341   0.67968193    4.9473244    5.9789066 -0.023270637 
    2620    1.0008578   0.67941175    4.9447325    5.9782075 0.0087988989 
    2630   0.98767137   0.68023517     4.951348    5.9809816 -0.0041042661 
    2640    1.0110673   0.68051402    4.9433148    5.9815038 -0.009354307 
    2650    1.0041006   0.67948526     4.946801    5.9814966 0.0020500057 
    2660   0.98307786   0.67809824    4.9545344     5.980406 0.0024809081 
    2670   0.99985829   0.67993259    4.9471315    5.9807737 -0.0013593818 
    2680   0.98082434   0.68154595    4.9491841    5.9777062 -0.0040731018 
    2690   0.99443906   0.68452531     4.941561    5.9778789  0.013183648 
    2700      1.00499   0.68647868    4.9366104    5.9786141  0.035460284 
    2710     1.016121    0.6833424    4.9369196    5.9797248 -0.018175347 
    2720    1.0006976   0.68259512    4.9468471    5.9834488 -0.012915652 
    2730   0.97324729   0.68221408    4.9555387    5.9820485 -0.0014363143 
    2740    0.9805458   0.68166585    4.9525571    5.9811006 -0.018566198 
    2750    0.9904368   0.68268724     4.953554    5.9866179 -0.0020191712 
    2760    1.0149325   0.68685165    4.9422425    5.9881365 -0.033357263 
    2770    1.0176823   0.69015185     4.936423    5.9865899 -0.010889745 
    2780    1.0045959   0.69227685    4.9363576    5.9840201 0.0099837002 
    2790   0.98914323   0.69190692     4.945181     5.987007  0.014514285 
    2800    1.0113903   0.68949738    4.9422395    5.9895261 0.0045658985 
    2810    1.0012005   0.68766916    4.9464614     5.988315 -0.00069174898 
    2820    1.0185991   0.68557385    4.9435935    5.9895067 0.0036645238 
    2830    1.0009906   0.68176346    4.9496148    5.9854885 0.0001052327 
    2840    1.0126737   0.67695363     4.949452    5.9846488  0.008938131 
    2850    1.0056515   0.67602861     4.955228    5.9870157  0.016020854 
    2860     1.026107   0.67566664     4.951441     5.990103 -0.0042384549 
    2870    1.0240955    0.6761485    4.9519376    5.9903699 0.0086775138 
    2880    1.0289214   0.67897697    4.9508011    5.9937691  0.002495481 
    2890    1.0522964     0.680222    4.9442817    5.9967638 0.0094438899 
    2900    1.0221054   0.67913948     4.955564    5.9962832 0.0053799243 
    2910    1.0271948   0.68057935    4.9522305      5.99619  0.011023641 
    2920    1.0292764   0.68274982    4.9537029    6.0005693 0.0053088951 
    2930    1.0485655    0.6853057    4.9481294    6.0043754 0.0075197278 
    2940    1.0480097   0.68675749      4.94505    6.0025512 -9.8169381e-05 
    2950    1.0493314   0.68528528    4.9446433    6.0011398 -0.014804625 
    2960     1.023511   0.68361736    4.9532929    5.9989872 0.0054936231 
    2970    1.0205842   0.68276042    4.9560152    5.9998172  0.011966073 
    2980    1.0257556   0.68693634    4.9485317    5.9983391 -0.018991871 
    2990    1.0185956   0.68939945    4.9436442    5.9933818 0.00016288046 
    3000    1.0276782    0.6884066    4.9415435    5.9935012   -0.0239374 
    3010    1.0015061   0.68829269    4.9514626    5.9940478 -0.024305582 
    3020    1.0140127    0.6847512    4.9454525    5.9889206 0.0094980999 
    3030    1.0248505   0.68391187    4.9441248    5.9905875 7.075022e-05 
    3040    1.0068656   0.68358217    4.9449025    5.9846732   0.01123575 
    3050   0.99242701   0.68261058    4.9493551    5.9830464 -0.012057893 
    3060   0.99539754   0.68383639    4.9478571    5.9838251  0.010269803 
    3070    1.0121707   0.68468932    4.9422821    5.9850367 -0.0091754186 
    3080    1.0107048   0.68578847    4.9408112    5.9841464 -0.012942925 
    3090    1.0103168   0.68550205    4.9435626    5.9864741  0.017839102 
    3100    1.0060332   0.68385636    4.9444606     5.984211 -0.00049736013 
    3110    1.0047801   0.68345008    4.9466379    5.9855387 -0.034473783 
    3120    1.0039145   0.68161882     4.944241    5.9810044  0.012019427 
    3130   0.99874833   0.68105547    4.9461348    5.9805072 0.0071264611 
    3140   0.97648908   0.68058888     4.950771    5.9768025 0.0056813207 
    3150   0.97697643   0.67886576    4.9489558    5.9734365 -0.0045248099 
    3160   0.96471406   0.67960789    4.9505115    5.9713964 -0.025487488 
    3170    0.9807321   0.68044305    4.9454714     5.972858 -0.027733886 
    3180   0.98208147   0.68117522    4.9458771    5.9744732 -0.010276149 
    3190   0.97959933   0.67927232    4.9468278    5.9726429 0.0058344093 
    3200   0.98695527   0.67862399     4.944987    5.9727561 -0.020033074 
    3210    0.9872823    0.6806765    4.9447676    5.9747049 -0.015616876 
    3220   0.98822674   0.68386622    4.9446064    5.9780674  0.010622349 
    3230   0.99471244   0.68410285    4.9448159     5.980808 0.0080089885 
    3240     1.010928    0.6833521    4.9375207    5.9784985  0.014135083 
    3250    1.0000217   0.68499418    4.9427332    5.9814948 -0.0027805603 
    3260   0.99944971   0.68375214    4.9428976    5.9802148  0.018501421 
    3270    1.0151165   0.68064621    4.9437324     5.983486  0.011722888 
    3280    1.0047257   0.67894767    4.9508469    5.9852261 -0.00097977079 
    3290    1.0001464   0.67910245    4.9502768    5.9831908 -0.0017572792 
    3300    1.0127695   0.68068793    4.9452552    5.9842202 -0.021380303 
    3310     1.002561   0.68373402    4.9423354    5.9807351 -0.0079578905 
    3320     1.006234   0.68601149    4.9351989    5.9771755 -0.00097709871 
    3330    1.0002241   0.68613742     4.940232    5.9802085 0.0055808468 
    3340   0.99107846   0.68683642    4.9443702    5.9818103 -0.010631581 
    3350   0.98625846   0.68694111    4.9459114    5.9817511 0.00030642057 
    3360   0.99424211    0.6870505     4.948173    5.9869464 0.0086580352 
    3370    1.0035399   0.68800952    4.9437696    5.9867912  0.028917993 
    3380   0.99261994   0.68793134    4.9442099    5.9832902  0.011488438 
    3390    1.0007676   0.68841753    4.9378177    5.9802666 0.0072324922 
    3400   0.98917217   0.68852576    4.9423198    5.9807749  0.016922682 
    3410   0.99035673   0.68628746     4.942905    5.9795408 -0.0046355712 
    3420   0.97581826   0.68411567    4.9568264    5.9861473 -0.002319817 
    3430   0.99467909   0.68386217     4.952945    5.9886846 -0.0085516839 
    3440    1.0223479   0.68554156    4.9449948    5.9922019 0.00038760478 
    3450    1.0330576   0.68811596    4.9392274    5.9927975 -0.0058114642 
    3460    1.0213054   0.68684785    4.9433841    5.9915288 -0.017243039 
    3470    1.0098762   0.68690642    4.9503333    5.9944933 0.0093109613 
    3480    1.0138048   0.68782045     4.949101    5.9955648 -0.0010491056 
    3490    1.0231215   0.68460514    4.9482411    5.9947855 -0.0047302834 
    3500    1.0216366   0.68219453    4.9503145    5.9939229  0.010797268 
    3510    1.0315395   0.68124745    4.9478789    5.9940436 -0.010263048 
    3520    1.0116086   0.68071598    4.9519083    5.9904907 0.0029176414 
    3530    1.0199899   0.67962181    4.9513974    5.9918506  0.012364132 
    3540    1.0082744   0.67891111    4.9536816    5.9892796 -0.0099501046 
    3550     1.016686   0.67910903    4.9473105    5.9860821 -0.0058262362 
    3560   0.99854151   0.68112864    4.9515299    5.9859024 -0.014470764 
    3570    1.0176462   0.68196598    4.9435769    5.9855452  0.011761436 
    3580    1.0022115   0.68236872    4.9489811    5.9858919 -0.021701995 
    3590   0.99936011   0.68291356    4.9482035    5.9846505 -0.0041629625 
    3600    1.0013278   0.68499219    4.9435484    5.9827701 -0.002327583 
    3610   0.99745139   0.68727695    4.9438495    5.9839846 0.00081977159 
    3620   0.98109477   0.68829645    4.9472661    5.9826344 -0.0087000169 
    3630   0.98718513   0.68724385    4.9443501    5.9808203 -0.0051940159 
    3640   0.98900085   0.68748733    4.9432776    5.9806336  0.011213508 
    3650   0.99080782   0.68695225    4.9455285    5.9829887 0.0064780636 
    3660   0.98873953   0.68622912    4.9474352    5.9834406 0.0073018267 
    3670   0.98779264   0.68630883    4.9464563    5.9822064 0.0069582857 
    3680    1.0093135   0.68469976    4.9436238    5.9853781  0.020679946 
    3690    1.0044407   0.68331701       4.9482    5.9868477  0.012193487 
    3700    1.0102608   0.68228005    4.9495141    5.9891838 -0.014473753 
    3710    1.0070042   0.68148612    4.9507057    5.9884294  0.012790936 
    3720    1.0001488   0.68035896     4.953206    5.9873774 -0.0023167442 
    3730    1.0197162   0.67692882    4.9525739    5.9902373  0.014661207 
    3740    1.0285607    0.6772862    4.9498099    5.9909595  0.019336908 
    3750    1.0306351    0.6795683    4.9468102    5.9909757  0.028259361 
    3760    1.0118183   0.67963579     4.952222    5.9897984 -0.012361827 
    3770    1.0075146    0.6806031    4.9525911    5.9896123 -0.0005493561 
    3780    1.0049496   0.68145957    4.9474721    5.9844424 -0.012507712 
    3790     1.001417   0.68188795    4.9489828    5.9851318  0.025253404 
    3800    1.0161659   0.68374774    4.9468885    5.9901149 -0.014265037 
    3810    1.0124298   0.68422219    4.9465282    5.9889073 -0.022268043 
    3820   0.99679213   0.68446568    4.9474605    5.9845511 -0.032567404 
    3830   0.99461308   0.68097066    4.9522601    5.9850849  0.017988955 
    3840    0.9994404    0.6779016    4.9525544    5.9840178   0.01606577 
    3850   0.98230933   0.67759231    4.9559667    5.9810605 0.0027242232 
    3860    1.0076815   0.67701619    4.9471989    5.9806922  0.008901952 
    3870      1.00491   0.67863617     4.943014    5.9771469   0.02840653 
    3880    1.0178891   0.67781652    4.9405273    5.9784321 0.0068546416 
    3890   0.98731377   0.67865098    4.9481914    5.9761143 -0.0061223114 
    3900   0.97530686   0.67855359    4.9523738    5.9759517 0.0077389107 
    3910   0.96848415   0.67977635    4.9500145    5.9724016 -0.009500279 
    3920   0.98706512   0.68297317    4.9418298    5.9739869 -0.0070323416 
    3930   0.98647193   0.68590029    4.9396669    5.9745412  0.016862663 
    3940    1.0183774   0.68654435    4.9335164    5.9803217 -0.0022495434 
    3950    1.0049194    0.6852815    4.9411859    5.9819674  0.031838231 
    3960   0.98398463   0.68388051     4.947732    5.9797067 -0.0056552084 
    3970   0.96433314   0.68432973    4.9470078    5.9724798  0.010886027 
    3980   0.99951822   0.68523906    4.9377161    5.9765445  0.015142427 
    3990   0.98746154   0.68332838    4.9405772    5.9732298 -0.029764472 
    4000   0.99917455   0.68233172    4.9416259    5.9774253 -0.00030826851 
    4010    0.9944539   0.68080393    4.9395701    5.9721718 -0.013367706 
    4020   0.96143216   0.68017053     4.951564    5.9718506 0.00010575234 
    4030    0.9647997   0.68022391    4.9514614    5.9729927 -0.012952106 
    4040   0.98594899   0.68015754    4.9464162    5.9753628   0.01738851 
    4050   0.99223224   0.68237984    4.9415688    5.9749605 -0.0047195652 
    4060    1.0013919   0.68199505    4.9375475    5.9737947  0.021090583 
    4070    1.0052547   0.68028372    4.9404041    5.9763065 -0.0047313201 
    4080   0.99828534   0.67798654    4.9444971    5.9756368 0.0068020629 
    4090   0.99961121   0.67737129    4.9497176    5.9807111 -0.002414925 
    4100   0.96661443   0.67783248    4.9570107    5.9767925 -0.0025525701 
    4110   0.98813184   0.67950367     4.947949    5.9770139 -2.1461169e-05 
    4120    1.0056182   0.68310124     4.938724    5.9775725 -0.018062698 
    4130   0.99101673   0.68509842     4.941784    5.9774642 -0.0080264652 
    4140   0.98769327   0.68670331    4.9380474    5.9741569 -4.7113931e-05 
    4150   0.98676459   0.68911392    4.9371117    5.9753032 0.0033993671 
    4160   0.99065517   0.68956169     4.935855    5.9758707   0.02228039 
    4170   0.99990971   0.68715592    4.9356624    5.9765461 -0.015008134 
    4180   0.98473564   0.68559706    4.9466734    5.9806303   0.02754203 
    4190   0.99468523   0.68511551    4.9450551    5.9820502 -0.0018134428 
    4200    1.0122162    0.6849848    4.9411833    5.9842494 -0.011809386 
    4210    1.0100957   0.68676854    4.9420403    5.9861401  0.015940276 
    4220    1.0131158   0.68684064    4.9373556    5.9825958 -7.2925851e-05 
    4230   0.97955722   0.68682052     4.947568    5.9809165 0.0098285299 
    4240   0.99742372   0.68753835    4.9463084    5.9866951 -0.021823359 
    4250    1.0076471   0.68905028    4.9413682    5.9868835  0.014945202 
    4260    1.0155194   0.68918584    4.9388946    5.9873304 -0.011378586 
    4270    1.0119513   0.68756484    4.9414246    5.9869771 -0.0073969507 
    4280    1.0166776   0.68795893    4.9411154    5.9887339 -0.016642486 
    4290    1.0090413    0.6878795    4.9416694    5.9865071 0.0094002783 
    4300    1.0082828    0.6866797    4.9435077    5.9868773 -0.0024334098 
    4310    1.0079208   0.68534564    4.9466668    5.9885743  0.014203132 
    4320   0.99411946   0.68575053    4.9494607    5.9868907 -0.013041965 
    4330    1.0128501   0.68684172    4.9453181    5.9904655 -0.043169344 
    4340    1.0309256   0.68933188     4.937736    5.9917679 0.0055376969 
    4350   0.99968487   0.69277225    4.9394634     5.985884   0.01278082 
    4360   0.99219954   0.69251053    4.9375657    5.9810765  0.021655661 
    4370    0.9755395   0.69177728    4.9382036    5.9750875 -0.0059083756 
    4380   0.98903643   0.69105187    4.9398516    5.9807848 -0.0089615019 
    4390   0.98955825    0.6910297    4.9364763    5.9775719 0.00010640728 
    4400   0.99313798   0.69162127     4.936384    5.9793376 -0.018651879 
    4410   0.98755123   0.69174941    4.9402971    5.9814024  0.015650585 
    4420   0.98744043   0.68874259    4.9425603    5.9806195  0.014606338 
    4430   0.99341328   0.68612585    4.9445151    5.9820706 0.0021761131 
    4440   0.99777446   0.68300832    4.9456959    5.9816767 -0.0036780857 
    4450    1.0024825   0.68076914    4.9455439     5.980951  0.013385634 
    4460    1.0050831   0.68108768     4.943241    5.9798867 0.0049097448 
    4470    1.0102377   0.68153113    4.9410284     5.979941 0.0076185739 
    4480   0.99662674    0.6811418     4.948122    5.9818303 -0.019138102 
    4490   0.99161073   0.68022924    4.9484249    5.9794461 -0.0019179948 
    4500    1.0057555   0.68101251    4.9445585    5.9813668   0.01336042 
    4510    1.0044107   0.68473099    4.9435841    5.9836351 0.0065059173 
    4520    1.0193689   0.68488047    4.9403914    5.9858836   0.01192596 
    4530    1.0044272   0.68442399    4.9498188    5.9895687 0.0033426534 
    4540    0.9903073   0.68513799    4.9518249    5.9872938   0.03159742 
    4550    1.0005666    0.6863384    4.9498786    5.9901772 0.0020641933 
    4560     1.009544    0.6885314     4.939687    5.9853545  0.030710979 
    4570   0.99974389   0.68917062    4.9441027    5.9869424 -0.0071176185 
    4580    1.0105575   0.68813454    4.9435612    5.9891903 -0.0070883037 
    4590   0.99243984   0.68648317    4.9491998    5.9867682  0.026386264 
    4600    1.0054365   0.68388194    4.9454132    5.9849781 0.0074118793 
    4610    1.0061331   0.68379896    4.9478889    5.9876173 -0.018251702 
    4620    1.0071856   0.68343003    4.9475364    5.9872681  0.020829362 
    4630   0.99842825    0.6822133    4.9488259    5.9842429 0.0018118811 
    4640   0.99058024   0.68257696    4.9514123    5.9844167 -0.0039448759 
    4650    1.0081597   0.68270324    4.9481701    5.9875197 -0.00085854149 
    4660    1.0273564   0.68239116    4.9460721    5.9919006 -0.0058169191 
    4670    1.0280204   0.68069353    4.9474152     5.991781  0.028672967 
    4680    1.0179515    0.6802772    4.9515439    5.9919314 -0.0010208845 
    4690    1.0328027   0.68039637    4.9478673    5.9936277 -0.024189973 
    4700    1.0377852   0.68014331    4.9481192    5.9953892  0.028397975 
    4710    1.0263884   0.67958835      4.95645    5.9991332 -0.0037060021 
    4720    1.0276961   0.67946979    4.9543732    5.9974006 0.0038896755 
    4730    1.0186256   0.67992441    4.9531959    5.9934691 -0.016444149 
    4740    1.0025425   0.68081344    4.9591422    5.9946149 0.0089142166 
    4750    1.0219181   0.68072723    4.9526756    5.9949164 0.0084199823 
    4760     1.025911   0.67896259    4.9498829    5.9917715  0.012567284 
    4770    1.0161833   0.67647227    4.9499498    5.9859069 -0.016193335 
    4780   0.99637096   0.67746214    4.9556714    5.9856095 -0.0094979495 
    4790    1.0083071   0.67872724     4.948386    5.9838117  0.010767323 
    4800    1.0183751   0.68127283    4.9456356    5.9871685 0.0018292319 
    4810    1.0149811   0.68230502    4.9443343    5.9856988 -0.022229966 
    4820    1.0072123   0.68398578    4.9459505    5.9862475 -0.017064713 
    4830   0.99017984   0.68517339    4.9503982    5.9858574  0.019399937 
    4840    1.0122576   0.68488523    4.9409154    5.9838967 0.0078332756 
    4850    1.0270558   0.68447632    4.9387071    5.9865145 0.0048960569 
    4860    1.0067332   0.68418577    4.9434449    5.9837724  -0.02003691 
    4870   0.99773869   0.68095487    4.9507558    5.9846705 -0.0099569945 
    4880    1.0117378   0.67779341    4.9500588    5.9857643 -0.0076164232 
    4890    1.0091468   0.67638824    4.9503646    5.9837483   0.01368604 
    4900    1.0007715   0.67594145    4.9514488    5.9814229 -0.0094096785 
    4910    1.0095716   0.67771097     4.943412    5.9782687 0.0094326829 
    4920    1.0055494   0.67957775    4.9441004     5.979401  0.013975758 
    4930    1.0135336   0.67953711    4.9459613    5.9840458 0.0077665249 
    4940   0.98520221   0.68001611    4.9543764    5.9829174 -0.015617866 
    4950    0.9852926   0.68190647    4.9501938    5.9806572  0.022177174 
    4960   0.98859821   0.68387919    4.9435626    5.9771681  0.012710997 
    4970   0.99507098   0.68506743    4.9394334    5.9765169 0.0043590592 
    4980    0.9829136    0.6847532    4.9417432    5.9742117 -0.0019504235 
    4990   0.98514715   0.68497993     4.945179    5.9786643 -0.032258203 
    5000   0.98551821   0.68573439    4.9488442    5.9832153 -0.021541438 
    5010   0.97436268   0.68651166    4.9511514    5.9823534  0.017183838 
    5020   0.99486585   0.68992296    4.9388598    5.9807263 -0.0098944685 
    5030   0.99638127    0.6915913    4.9382366    5.9823075 0.0056964297 
    5040   0.99302936   0.68958379    4.9396275    5.9805051 -0.017761723 
    5050   0.98973383   0.69031724    4.9422306    5.9826758 -0.027791382 
    5060    1.0075394   0.69257166    4.9375109    5.9865094 -0.012851741 
    5070    1.0060465   0.69411896    4.9363052     5.986323 -0.003791384 
    5080    1.0137782   0.69246141    4.9362178    5.9873132 0.0098278048 
    5090    1.0199847   0.68995011    4.9378399    5.9886196  0.014016089 
    5100    1.0157413   0.68683364    4.9447565    5.9909185 -0.020317553 
    5110    1.0135125   0.68128108    4.9494019    5.9892229 -0.040669966 
    5120    1.0050498   0.67937913    4.9492744    5.9841997 0.0075807667 
    5130    1.0372312   0.67931727    4.9427803    5.9890282  0.011487444 
    5140    1.0235631   0.68197821    4.9443545    5.9884282   0.01315814 
    5150    1.0133527   0.68006462    4.9464866    5.9850346 0.00024536161 
    5160     1.015464   0.67973762    4.9478104    5.9867783 -0.021798912 
    5170    1.0110504   0.68303403    4.9442682    5.9849712  0.015734799 
    5180    1.0131577   0.68510343      4.94383    5.9873478 0.0056863895 
    5190     1.000239   0.68566635    4.9462936    5.9858042 -0.0017400942 
    5200   0.98941083   0.68738148    4.9447763    5.9821715 -0.0039047974 
    5210   0.99918264   0.68942776    4.9396207    5.9825191  0.020690491 
    5220    1.0211168   0.69144959    4.9315999    5.9842795 -0.0031163998 
    5230    1.0100777   0.69173399    4.9335215    5.9825803  0.018546092 
    5240    0.9950382   0.69043154     4.941224      5.98366 -0.0056685001 
    5250   0.98568307   0.68965058    4.9445304     5.982876 -0.027790187 
    5260    1.0044004   0.68768261    4.9413098    5.9843089  0.012642092 
    5270    1.0055921   0.68479811     4.944512    5.9850481 0.0012270892 
    5280   0.97882086   0.68406152    4.9533785    5.9837074 -0.027315073 
    5290   0.98071788   0.68520192    4.9495734    5.9817138 -0.016379858 
    5300   0.98665887   0.68796548    4.9436405    5.9806462 -0.009547762 
    5310   0.98547082    0.6887787    4.9453046    5.9827032  0.024505847 
    5320   0.99193216   0.68795142    4.9420772    5.9809343  0.004852221 
    5330   0.99332798   0.68580062    4.9425126    5.9797127 -0.00017909526 
    5340   0.98412216   0.68511686     4.943738    5.9769977 -0.012909752 
    5350   0.96991228    0.6833608    4.9491341    5.9756108 0.0022212514 
    5360   0.98706297   0.68323763    4.9416942     5.974115 0.0010321674 
    5370   0.97244046   0.68580053    4.9390432     5.968854 -0.00039990325 
    5380   0.97731485    0.6863841    4.9344251    5.9665438  0.028472336 
    5390   0.95067852    0.6852039    4.9429342    5.9644499 -0.012342585 
    5400   0.95406513   0.68476656    4.9417202    5.9639966 -0.017363609 
    5410   0.94827938   0.68657728    4.9429483    5.9649887 -0.0041787455 
    5420   0.96523914    0.6902725    4.9357231    5.9674584 -0.013403913 
    5430   0.98661386   0.69218741    4.9260042    5.9672159 -0.010732716 
    5440    0.9856746   0.69188112    4.9289929    5.9695661 -0.0034457599 
    5450   0.97766602   0.69117693    4.9337037    5.9707395 -0.0050862232 
    5460   0.99062694   0.69007271    4.9337167    5.9742333  0.010878581 
    5470   0.97548949    0.6887202    4.9418863    5.9756954 0.0086431852 
    5480   0.96340455   0.68827954     4.943235    5.9723283  0.015204912 
    5490   0.97480849   0.68919575    4.9390148    5.9730586 -0.021228892 
    5500   0.96846584   0.68807135    4.9422645    5.9729401 -0.0080906619 
    5510   0.96983813    0.6887189    4.9393396    5.9711483 -0.0054832105 
    5520    0.9834468   0.68880746     4.937854    5.9745654 0.0010976303 
    5530   0.99216583   0.68850528     4.935462    5.9749556 0.00096311348 
    5540   0.97371852   0.68902232    4.9426266    5.9761113  0.027954466 
    5550   0.98277883   0.68623514    4.9404774    5.9743801  0.020498474 
    5560   0.98236521   0.68569437    4.9431499    5.9763656 -0.010835468 
    5570    0.9866589   0.68679054    4.9377825    5.9736133 0.0020559392 
    5580   0.98887442   0.68802553    4.9323811    5.9702307 -0.011182393 
    5590   0.96516641   0.68720384     4.939882    5.9685228 -0.024257653 
    5600   0.97362014   0.68374632    4.9395303    5.9677043  0.021735366 
    5610   0.97850254   0.68219439     4.939146    5.9674952  0.015090349 
    5620   0.99516953   0.68447296    4.9325866    5.9691105 0.0035807416 
    5630   0.98221727   0.68756995    4.9303358    5.9653747 0.0038201921 
    5640   0.97889315   0.68854329    4.9333758    5.9682121 0.0068245221 
    5650   0.96852487   0.68730167    4.9398119    5.9697387  0.010240267 
    5660   0.97288765   0.68783366    4.9362428     5.968245 0.00013588663 
    5670   0.95346084   0.69028222    4.9360921    5.9636704 -0.011200969 
    5680   0.96925315   0.69261881    4.9319689    5.9674705 0.0023586621 
    5690   0.97584652   0.69255996    4.9301635    5.9679387 0.0042065927 
    5700   0.96307375   0.69133607    4.9375629    5.9695957  0.047051581 
    5710   0.95754222   0.68997475    4.9398922    5.9686069 0.0012455515 
    5720   0.97605073   0.68910952    4.9369191    5.9713161 0.0098705878 
    5730   0.97197746   0.68767673    4.9375517     5.969075 0.0067638951 
    5740   0.99138382   0.68722561    4.9350245    5.9729618 -0.035198783 
    5750   0.99344064   0.68698141    4.9382915    5.9767123 -0.0094715903 
    5760   0.98357988   0.68542225      4.94395    5.9773232 0.0059035525 
    5770   0.99710499   0.68275252    4.9417244    5.9772125 -0.016136571 
    5780    1.0012716   0.68216165    4.9421403    5.9785116 -0.0016290996 
    5790   0.99408559   0.68509026    4.9410096    5.9777673 -0.030692651 
    5800    1.0032993   0.68559573    4.9389963    5.9795189 -0.013395884 
    5810   0.98864744    0.6843447    4.9430423    5.9771307 -0.00085209937 
    5820   0.99155836   0.68563958    4.9384112    5.9748243 -0.0063558067 
    5830   0.98574851   0.68635164    4.9368985    5.9719683 -0.0098731591 
    5840   0.96861339   0.68754308    4.9400525     5.970252 0.0029224489 
    5850   0.96823242   0.69012568    4.9348881    5.9675355 -0.012390427 
    5860   0.97596327   0.69080133    4.9357075    5.9717654  0.038409343 
    5870   0.96701265   0.69165602    4.9356236    5.9693698 -0.0098508082 
    5880   0.99200643    0.6908041    4.9301152    5.9718513 9.0218935e-05 
    5890   0.98037548   0.68991687    4.9346427     5.971377 0.0028373363 
    5900   0.97043014   0.68765619    4.9377979    5.9687532 -0.013207765 
    5910   0.96426362    0.6846423    4.9454928    5.9712527    0.0330353 
    5920   0.99247313   0.68147585    4.9406644    5.9732373  0.022163777 
    5930   0.98089164    0.6805907    4.9448623     5.972453 -0.008291909 
    5940   0.97771686   0.68128766    4.9461673    5.9733319 0.0051071922 
    5950   0.98162555    0.6830527    4.9433555    5.9736679 0.0037753684 
    5960   0.98542724   0.68471619     4.941962    5.9752827  -0.03311266 
    5970   0.99312372   0.68678912    4.9392994    5.9774158   0.01018174 
    5980   0.98671916   0.68777347    4.9418132    5.9786482 -0.00077885352 
    5990   0.98554326    0.6867125    4.9433898    5.9787479 0.0096677042 
    6000   0.98931516   0.68518989    4.9444136    5.9795834 -0.017876985 
    6010   0.99029852   0.68557087    4.9442154     5.980114   0.01983004 
    6020   0.99293629   0.68556616    4.9454742    5.9823012 -0.011946455 
    6030   0.98752966   0.68181666    4.9517279    5.9828928 -0.014201471 
    6040   0.98174798   0.68136784    4.9528654    5.9815361  -0.01946504 
    6050   0.99909174   0.68237989    4.9464477    5.9822661 -0.023288882 
    6060   0.98534398   0.68117016     4.952656    5.9824013  0.013207036 
    6070    1.0009145   0.68238178    4.9457817    5.9822468 -0.0074131798 
    6080   0.98637587   0.68257422    4.9511601    5.9826744 -0.0028055313 
    6090   0.99445353   0.68018257    4.9515887    5.9835689 -0.0072198208 
    6100   0.99622775   0.67924342    4.9566675    5.9883362 -0.0070442337 
    6110   0.99612501   0.67983262     4.956234    5.9884555 -0.0032763008 
    6120    1.0068126   0.68136486    4.9470897    5.9846243 -0.014860709 
    6130    1.0050911   0.68456153    4.9430739    5.9831962  -0.02706167 
    6140    1.0026131   0.68761985     4.944225     5.986529 -0.025222195 
    6150    0.9967511   0.68756384    4.9438322    5.9840065 0.0081996327 
    6160   0.99217476   0.68797611     4.942772    5.9817396 -0.0040414259 
    6170   0.99798256   0.68993398    4.9440311    5.9870112   -0.0103193 
    6180    1.0112697   0.69042714    4.9392179    5.9873916 -0.0023692318 
    6190    1.0019826   0.69058848    4.9442797    5.9893293   0.03490901 
    6200   0.99214226   0.68864989    4.9511289    5.9907588 -0.0048645171 
    6210   0.98714726   0.68660449    4.9579171    5.9937345 -0.0066676827 
    6220   0.99614591   0.68457671    4.9547078    5.9916808 -0.024536107 
    6230      1.01507   0.68599481    4.9469706    5.9920563  0.024497834 
    6240    1.0052821   0.68603446    4.9474073    5.9890702  0.004960067 
    6250     1.025322   0.68737005    4.9401362    5.9902239 -0.0093460918 
    6260    1.0021318   0.68848766    4.9441106    5.9871122  0.011822069 
    6270    1.0063197   0.68697441    4.9410594    5.9840292 -0.036877038 
    6280    1.0128537   0.68558796    4.9407943    5.9846892 -0.010359195 
    6290    1.0118055   0.68242302    4.9447989     5.985158 -0.0053089107 
    6300    1.0000359   0.67947779    4.9520812    5.9853315 -0.0071045353 
    6310    1.0207947   0.67888564    4.9453451    5.9853469 -0.017482242 
    6320     1.017306   0.68039558    4.9456844    5.9859619 -0.023237166 
    6330    1.0158372   0.68080884    4.9430723    5.9832435 0.0013460512 
    6340    1.0077316   0.68106122    4.9470166    5.9845727  0.022195422 
    6350   0.98984367   0.68074408    4.9530795    5.9839904  0.018205935 
    6360     0.997242   0.68291615    4.9497227    5.9854229 -0.0048955304 
    6370    1.0007107   0.68790747     4.943066    5.9849847 0.0027052735 
    6380     1.007858   0.69297168    4.9344165    5.9839278 -0.0016846586 
    6390    1.0006574   0.69413681    4.9382021    5.9863312 0.0047507097 
    6400   0.99511386   0.69256166    4.9454735    5.9900664  0.019935913 
    6410    1.0055029   0.69189458    4.9431689    5.9907699  0.019304339 
    6420   0.99199022   0.69024759    4.9497864    5.9909602  0.025020036 
    6430   0.99960069   0.68893059    4.9468792    5.9894283 -0.0080652208 
    6440    1.0171229   0.68761478    4.9411687    5.9886006 0.0033580395 
    6450    1.0218945     0.688339    4.9396812    5.9895254  0.011354563 
    6460    1.0175279   0.69012223    4.9407745    5.9908572 -0.00053724896 
    6470    1.0133917   0.69233417    4.9395473    5.9903787 -0.026184794 
    6480    1.0128647   0.69091082    4.9411302    5.9903518  0.011760741 
    6490    1.0017313   0.68971396    4.9440502    5.9881364 0.0043716846 
    6500   0.99126607   0.69007729    4.9450082    5.9857556 0.0026264641 
    6510    1.0155238   0.69205612    4.9373995    5.9887071 -0.012331895 
    6520    1.0110759    0.6912659    4.9391956    5.9881395 -0.0061748395 
    6530    1.0123214    0.6891574    4.9417001    5.9889761 0.00077974695 
    6540    1.0032083   0.68834846    4.9507553    5.9939985 0.0013182988 
    6550    1.0201582   0.68577245    4.9476611    5.9943245 -0.0048396029 
    6560    1.0295002   0.68544912    4.9452586    5.9949035  0.014879548 
    6570    1.0227435   0.68485138    4.9475263    5.9941832 -0.024433081 
    6580    1.0286564   0.68361538    4.9460597    5.9935723 -0.0085366127 
    6590    1.0401105   0.68320179    4.9427047    5.9938557  0.017631352 
    6600    1.0151223   0.68166052    4.9519712    5.9927411 -0.012045428 
    6610    1.0134195   0.67789112    4.9583721    5.9947702 -0.019058429 
    6620    1.0026102   0.67658943    4.9606488    5.9919214 0.0096599491 
    6630   0.99960929    0.6792284    4.9601999    5.9930499 0.0026285119 
    6640    1.0002905   0.68340838    4.9524443    5.9897152 -0.030067752 
    6650   0.99948773   0.68601947     4.947778     5.987376  0.025295634 
    6660     1.003152   0.68958425    4.9398307    5.9842897 -0.010963163 
    6670   0.97752216   0.69321272    4.9369586    5.9759794 0.0025281361 
    6680   0.96649934   0.69126959    4.9443696    5.9775477 -0.001540406 
    6690   0.96229904   0.68933238    4.9448806    5.9746357 0.0070609693 
    6700   0.97529418   0.69056701    4.9431721     5.978759 -0.016132708 
    6710   0.99913594   0.69099054    4.9347095    5.9791541  0.010345037 
    6720    1.0066872   0.68848327    4.9315746    5.9761833 0.0066417077 
    6730   0.98338842   0.68489107    4.9462522    5.9790265  0.012136171 
    6740   0.97388261   0.68065264    4.9551524    5.9803255 0.0071834564 
    6750   0.99221851   0.67833286    4.9509084    5.9802482 -0.0067615995 
    6760     0.993263   0.67921278    4.9504177     5.981007 -0.025850905 
    6770    1.0168139   0.68054577    4.9431522    5.9834058 -0.00038380809 
    6780    1.0121521   0.68076937    4.9451476    5.9839757 -0.00037811554 
    6790   0.98148146   0.68094785    4.9522318    5.9803883 -0.0048442801 
    6800   0.96893906   0.68357358    4.9545097    5.9808549 0.00098056425 
    6810   0.99264043   0.68602239    4.9434741    5.9806527 0.00071222451 
    6820    0.9832353   0.68792232    4.9469253    5.9826767 -0.021279601 
    6830    0.9992756   0.68802062    4.9418822    5.9834063  0.013759895 
    6840   0.99506616   0.68817433    4.9421256    5.9823143  -0.00967006 
    6850   0.97921651   0.68755826    4.9484243    5.9823899 0.0028098764 
    6860   0.97238522   0.68582498    4.9513418    5.9811576 -0.015056951 
    6870   0.96576724   0.68517277    4.9541362    5.9809586  0.020356466 
    6880   0.98079418   0.68375897    4.9447077    5.9754322 -0.00016819385 
    6890   0.98325601   0.68543833    4.9421175    5.9753922 -0.0026442034 
    6900   0.98748893   0.68572879    4.9422921    5.9773547 0.0071356241 
    6910   0.97960913   0.68518424    4.9476102    5.9793408 -0.011239984 
    6920   0.97923318    0.6858412    4.9459613    5.9782158 -0.010282739 
    6930   0.98883772   0.68652427    4.9427754    5.9791107 -0.010920692 
    6940     1.007275   0.68904267    4.9369374    5.9823135 -0.0012368106 
    6950    1.0046834   0.69147177    4.9384877     5.985376  0.021131757 
    6960   0.98631032   0.69097133    4.9441225    5.9840107 0.0096658085 
    6970   0.98041667   0.69200446    4.9439903    5.9828267 -0.0051885563 
    6980   0.97706133   0.69493341    4.9443257    5.9849041 -0.021797811 
    6990   0.98227141   0.69661835     4.942212    5.9863184 -0.007191332 
    7000   0.99908043   0.69693468    4.9354026    5.9857717 -0.00079277035 
    7010   0.98647574   0.69521975    4.9396768    5.9838719 -0.021822457 
    7020   0.96722236   0.69145049    4.9482737    5.9818886 -0.024677948 
    7030   0.98278656   0.69013341    4.9480812    5.9858849 -0.0053508583 
    7040    1.0154367   0.68707909    4.9419966    5.9882963  0.019673324 
    7050   0.98361102    0.6886598    4.9508072     5.987429 -0.013457815 
    7060   0.99170313   0.69129127    4.9397991     5.981915  0.022516888 
    7070   0.99577813   0.69336404    4.9391115    5.9847418  0.024825816 
    7080   0.99252205   0.69256549    4.9449889    5.9886687  0.011016716 
    7090   0.99469014   0.68842071    4.9508895    5.9911915 0.0098354203 
    7100    1.0030941   0.68655163     4.951284    5.9926899 -0.0033692721 
    7110    1.0226889   0.68639751     4.945539    5.9937227 0.0022972158 
    7120    1.0340092   0.68786354    4.9460082    5.9996626 -0.031918401 
    7130    1.0233131   0.68696708    4.9477894    5.9967634 -0.0091837979 
    7140    1.0130436   0.68589753    4.9505451    5.9948167 0.0054822756 
    7150    1.0144052   0.68371416    4.9505746    5.9931445 -0.025099007 
    7160    1.0100305   0.68245994    4.9519195    5.9916876 -0.021813118 
    7170    1.0248029   0.68540734    4.9460502    5.9939916 -0.00037772544 
    7180    1.0185798   0.68755652    4.9420513    5.9899403 0.00062757814 
    7190    1.0078812   0.68728563     4.950637    5.9944704 -0.019293085 
    7200    1.0052837   0.68709893    4.9539478    5.9966757  0.033405035 
    7210     1.011581   0.68946157    4.9497615    5.9970798  0.018890528 
    7220    1.0149565   0.69089548     4.949014    5.9989602 -0.0023002364 
    7230     1.026177   0.69209341    4.9443701    5.9994837 0.0082934025 
    7240    1.0349763   0.69253543    4.9434364    6.0021048 -0.012774374 
    7250    1.0385568   0.69072025    4.9453354    6.0034553 0.00030137167 
    7260    1.0292016   0.68751399    4.9486771    6.0002812 -0.021021813 
    7270    1.0113779   0.68601519    4.9491345    5.9929345 -0.0045024103 
    7280    1.0189912     0.688148    4.9420799     5.990706  0.034097029 
    7290     1.028352   0.68881768    4.9385182    5.9911255 0.0039715866 
    7300    1.0221616   0.68814868    4.9419051    5.9916534 0.0039223764 
    7310    1.0143162   0.68834648    4.9468498    5.9940205 -0.018549775 
    7320   0.99228425   0.68892006    4.9499634    5.9899137 -0.032334423 
    7330    1.0064897   0.68930793    4.9473163    5.9926798 -0.019479965 
    7340    1.0179422   0.69225792     4.944507     5.996872 0.0017712489 
    7350    1.0342088   0.69222399    4.9412302    5.9993157 0.00015713028 
    7360    1.0152729   0.69106445    4.9464629    5.9966901 0.0082406669 
    7370    1.0121476   0.68605042    4.9511021    5.9952097 -0.00012059171 
    7380    0.9909948   0.68127545    4.9608872    5.9927368  -0.01811735 
    7390     1.009609   0.68056747    4.9573929    5.9951194 0.00072368189 
    7400     1.015245   0.68363558    4.9507608    5.9935492 -0.011319072 
    7410    1.0316022   0.68650774    4.9412173    5.9926644 -0.023471731 
    7420    1.0176304   0.68659692    4.9431289    5.9897225 -0.011029921 
    7430    1.0174593   0.68408578    4.9453708    5.9893927 0.0078032825 
    7440    1.0157454   0.68270868    4.9489359    5.9909744  0.013520411 
    7450    1.0098408   0.68164743    4.9534966    5.9923851 -0.040679069 
    7460    0.9989478   0.68185329    4.9581348    5.9933756  0.023318062 
    7470   0.99529864   0.68270679    4.9585482    5.9933516 -0.0003764273 
    7480    1.0208564   0.68397347    4.9505765    5.9956879  0.002171978 
    7490    1.0395833   0.68604439    4.9442543    5.9980614 -0.012710574 
    7500    1.0317572   0.68734184    4.9449443    5.9972804 0.0082181496 
    7510    1.0076906    0.6902579    4.9527924    5.9995306 0.0068637121 
    7520    1.0126202   0.69347006    4.9498869    6.0015813 0.0091313689 
    7530    1.0183493   0.69616459    4.9411855    5.9976011 -0.0081945775 
    7540    1.0106787   0.69579876    4.9428141    5.9961503  0.033306857 
    7550    1.0142888   0.69564779    4.9418517     5.996314 -0.0004220659 
    7560    1.0015183   0.69557866    4.9440419    5.9939174  -0.01279291 
    7570    1.0007585   0.69335658    4.9463259    5.9937106 -0.018572809 
    7580    1.0084858   0.69126554    4.9432294    5.9912566 -0.0011789955 
    7590    1.0033965   0.68877912    4.9469249    5.9906654  0.019007219 
    7600   0.99662321   0.68632217    4.9497978    5.9886851 -0.0077228627 
    7610    0.9969356   0.68534562    4.9504256    5.9884469 0.0058669553 
    7620    1.0000088   0.68713037    4.9507628     5.991656 0.00077361708 
    7630    1.0199676   0.68989425    4.9433201    5.9940379  0.019189825 
    7640   0.98110866   0.69366357    4.9518959    5.9926362 -0.019831434 
    7650    1.0105002   0.69550995    4.9412016    5.9941859 -0.0086858126 
    7660    1.0291765   0.69750266    4.9355505    5.9971344  0.010138951 
    7670    1.0132549   0.69918671    4.9385497    5.9961853   0.01109368 
    7680    1.0145106   0.69728177    4.9423676    5.9985424 -0.0047417712 
    7690    1.0211806   0.69454227    4.9427926    5.9985875 -0.018485842 
    7700    1.0194254   0.69241765    4.9453581    5.9984074  0.010034842 
    7710    1.0129549   0.69118162    4.9444055    5.9939298 -0.021424904 
    7720    1.0155609   0.69033549    4.9440815    5.9936816 -0.028796464 
    7730    1.0321027   0.68922825    4.9416664    5.9960111 -0.013526071 
    7740    1.0237671   0.68904885    4.9450193    5.9962357 -0.018998577 
    7750    1.0111884   0.68903073    4.9481662    5.9949147  0.021153614 
    7760     1.015604   0.68510536    4.9494805    5.9938657 0.0082088826 
    7770    1.0062907   0.68420561    4.9524896    5.9926804 -0.027166074 
    7780    1.0018405   0.68844255    4.9511711    5.9940245 0.0075924204 
    7790    1.0215647   0.69212169    4.9424001    5.9959103 0.0089615171 
    7800    1.0244416   0.69495346     4.933356    5.9907157  0.022449717 
    7810   0.99551014    0.6946173    4.9400498    5.9868386  0.016340052 
    7820   0.97718432   0.69247837    4.9463238    5.9844906 -0.033683077 
    7830   0.98595841   0.69171555    4.9460513    5.9865593  -0.00646932 
    7840   0.97740352   0.69191951    4.9455378    5.9832234 -0.023543854 
    7850   0.98052155   0.69245495    4.9425204    5.9818444 0.0092087029 
    7860    1.0041565   0.69276696     4.936121    5.9841182  0.023048425 
    7870    1.0079843   0.69164391    4.9350644    5.9832927 -0.0083994859 
    7880   0.99902154   0.69010839    4.9422379    5.9857599 0.0080014885 
    7890   0.99044391   0.68863051    4.9479274    5.9869372 -0.0052337538 
    7900   0.99199528   0.68940701    4.9457501    5.9860851 -0.012413462 
    7910    1.0198113   0.69026384    4.9388207    5.9898527 -0.020016075 
    7920    1.0036215   0.69030996    4.9449223    5.9902732 0.0078227021 
    7930    1.0047614   0.68825975     4.942851    5.9865549  0.002874961 
    7940   0.99545685   0.68556575    4.9501634    5.9878818 -0.0018174876 
    7950    1.0083663   0.68563925    4.9498022    5.9921609 -0.0026187142 
    7960   0.99704267   0.68808585    4.9510532    5.9918526  0.022760415 
    7970    1.0056741   0.68996219    4.9460944    5.9918237  0.024793232 
    7980     1.011971   0.69434292    4.9375533    5.9898909 -0.0032512074 
    7990    1.0089289   0.69620051    4.9379482    5.9910672 -0.0023563612 
    8000   0.96915232   0.69423733     4.949859    5.9869434   -0.0370858 
    8010   0.98970966   0.69085059    4.9554821    5.9964522 -5.8206546e-05 
    8020   0.99234508   0.68873249    4.9546373    5.9944216 -0.035571064 
    8030    1.0103151    0.6880075    4.9513775    5.9967938 0.0099934645 
    8040   0.99608405   0.68993603    4.9532005     5.995511 -0.00026899158 
    8050     1.020577   0.68954024    4.9420959    5.9926752 -0.0072046489 
    8060    1.0199816   0.68608122    4.9472159    5.9941256 0.0028935422 
    8070    1.0046405   0.68413523    4.9509465    5.9904831 0.0013773527 
    8080    1.0013891   0.68218077    4.9534998    5.9899318 -0.0099027492 
    8090    1.0013129   0.68298357    4.9543809    5.9915887 0.0041691419 
    8100    1.0355638   0.68619444      4.93991    5.9924453 -0.0010715646 
    8110    1.0243438    0.6888605    4.9407832    5.9920153 0.0023599612 
    8120    1.0108868   0.68932935     4.943474    5.9904144  0.046415977 
    8130    1.0111399   0.68834856    4.9427465    5.9887957 0.0098081415 
    8140   0.99718649   0.68854321     4.949328    5.9906357 0.0017572862 
    8150      1.01213   0.68724884    4.9453618    5.9906615 -0.0072858258 
    8160    1.0086619   0.68679496    4.9499369    5.9935558  0.015386082 
    8170    1.0011489   0.68751915    4.9496448    5.9913301 0.0056055255 
    8180    1.0013603   0.68990358    4.9477037    5.9918482 0.00065707425 
    8190    1.0033948   0.69196858     4.943435    5.9903643 -0.0098952814 
    8200   0.99427435   0.69542883     4.942289    5.9894521  0.023073457 
    8210   0.99499371   0.69708225    4.9363425    5.9854135 0.0074559108 
    8220   0.99702986   0.69427003    4.9385117    5.9854907 -0.0085973183 
    8230   0.98808997   0.69341847    4.9405812    5.9835461  0.011200321 
    8240   0.98903766    0.6929868    4.9385788    5.9814473 0.0031131516 
    8250   0.97252665   0.69162167    4.9423245     5.977987  0.027704276 
    8260   0.97955922   0.69066457    4.9354937    5.9726869 0.00031921984 
    8270   0.97551006   0.68895815    4.9397539    5.9738082  0.028860739 
    8280   0.98094786   0.68646733    4.9441706    5.9776578  -0.02280531 
    8290    1.0144532    0.6858106    4.9384865    5.9831698 -0.0065467895 
    8300   0.99810774   0.68778843    4.9422549    5.9831337   0.02695494 
    8310     1.007607   0.68803538    4.9388087    5.9832949 -0.0016292776 
    8320     1.003122     0.688559     4.941344    5.9847672  -0.01548751 
    8330    1.0069143   0.68867342     4.943156    5.9880352 -0.048204638 
    8340   0.99974005   0.68647145    4.9515997    5.9917389 0.0090865106 
    8350    1.0047023   0.68557702    4.9468609    5.9878611 -0.00090852086 
    8360    1.0003969   0.68784432    4.9470491    5.9887936 0.0060488308 
    8370    1.0006071   0.68757546    4.9463201    5.9878701 -0.010357435 
    8380    1.0037588    0.6869362    4.9443491    5.9863748 -0.0066598961 
    8390    1.0029575   0.68768757    4.9467232    5.9892167 -0.015062167 
    8400     1.011055   0.68647454    4.9452185    5.9893636 -0.020080234 
    8410   0.99671656   0.68474672    4.9475363    5.9848813  0.032232887 
    8420    1.0096195   0.68415652    4.9468802    5.9881994  0.012683645 
    8430   0.99636957   0.68417316    4.9510623    5.9877109 -0.013065342 
    8440    1.0016038   0.68408512    4.9509972    5.9894094  0.010684766 
    8450     1.010652   0.68259357    4.9476677    5.9877893 0.0023674006 
    8460    1.0114562   0.68035923    4.9517528    5.9899246    0.0132788 
    8470    1.0043164   0.67947002    4.9541243     5.988881  -0.03964031 
    8480    1.0253388   0.67885769    4.9486359    5.9902172  0.020620284 
    8490    1.0182188   0.67843996    4.9523868    5.9910316  0.026727099 
    8500    1.0159957   0.67830793    4.9536766    5.9914029  0.027503654 
    8510    1.0126976    0.6807795    4.9521685    5.9911997 -0.0081163141 
    8520    1.0212333   0.68324796    4.9482516    5.9927708 3.3045706e-05 
    8530    1.0299699    0.6839011    4.9446718    5.9929348 -0.019429549 
    8540    1.0285478   0.68272168     4.944647    5.9912275 -0.010386075 
    8550    1.0247901    0.6820909    4.9459397    5.9905601  0.013376089 
    8560    1.0034772   0.68199815    4.9485944    5.9855824  0.017163729 
    8570   0.99423092   0.68443532     4.949566    5.9857202 -0.028711197 
    8580   0.98556721   0.68702844    4.9487437    5.9844261 -0.00023232763 
    8590   0.98677557   0.68749351    4.9456303    5.9822053  0.018727369 
    8600   0.99382503   0.68807408    4.9406634    5.9803128 0.0073684219 
    8610   0.98766157   0.68775164    4.9443134      5.98146 0.0051390395 
    8620    0.9683794   0.68694465    4.9491952    5.9787135 -0.013712748 
    8630   0.98812387   0.68572068    4.9440295    5.9793087 -0.006746067 
    8640   0.97898929   0.68669781    4.9456313    5.9786562 0.0015727047 
    8650   0.99390066   0.68603261    4.9417222    5.9793569 0.0078934722 
    8660    1.0003272   0.68641773    4.9391274    5.9794207  0.017797499 
    8670   0.99462641    0.6855508    4.9448705    5.9822801  -0.01055712 
    8680    0.9852229   0.68605191    4.9500845    5.9846686  0.010167577 
    8690   0.98756355   0.68662272    4.9491622    5.9851452 -0.025729851 
    8700    1.0036464   0.69107901     4.939484    5.9856127  0.031917878 
    8710    1.0073463   0.69211142    4.9378504    5.9863204  0.026654913 
    8720    1.0064934   0.69112704     4.940094    5.9872779 -0.0046132466 
    8730   0.99459353   0.68986694    4.9466854    5.9883995 -0.0066515417 
    8740   0.98587078   0.68889888    4.9479352    5.9855955 0.0041726902 
    8750   0.97892169   0.69060398    4.9483551    5.9852622 -0.017854213 
    8760    1.0108939   0.69051033    4.9412778    5.9894017 -0.016947224 
    8770    1.0263242   0.68750286    4.9350806    5.9856557  0.024926531 
    8780    1.0091059    0.6835683    4.9422967    5.9828461  0.024646128 
    8790    1.0015296   0.68170967    4.9466398    5.9826503 0.0093829864 
    8800   0.99078516   0.68187555    4.9465009    5.9788764 -0.026509255 
    8810    1.0107015   0.68321166     4.942095    5.9828522 0.0084103384 
    8820   0.99485392   0.68453613    4.9440965    5.9805719 -0.019206137 
    8830   0.99288661   0.68427573    4.9431961    5.9787151 -0.0034063522 
    8840   0.99119268   0.68476519    4.9378873    5.9732965 -0.010083511 
    8850   0.98063125   0.68280414    4.9420549    5.9717669 -0.011775553 
    8860   0.98926574    0.6825436    4.9426717    5.9751777 0.0018579347 
    8870   0.98559646     0.682165    4.9449763    5.9758056 0.00093732321 
    8880    0.9913344   0.68112695    4.9431874    5.9750086 -0.014485039 
    8890   0.97165999   0.68351863    4.9474801    5.9747329 -0.0099781244 
    8900    0.9839267   0.68615101    4.9436045    5.9778292 -0.026940909 
    8910   0.99156577   0.68908303     4.941266    5.9811251   0.01906489 
    8920    1.0118787    0.6945305    4.9273501    5.9798426 -0.0014589835 
    8930     1.021203   0.69608855    4.9255866    5.9829356 -0.015216882 
    8940   0.99331098    0.6974381    4.9381713    5.9870029 0.00032587442 
    8950   0.98824955   0.69836848    4.9395195    5.9874909 -0.0019463898 
    8960   0.98746506   0.69706367    4.9438283    5.9902174 0.0054672486 
    8970   0.99153708    0.6951229    4.9443875    5.9902763 -0.013895232 
    8980    1.0038677   0.69393921    4.9378217    5.9868889 -0.0082025769 
    8990   0.98217876   0.69385706     4.941861    5.9831733 -0.00049112469 
    9000    0.9959318   0.69295819    4.9360188    5.9812976  0.013612088 
    9010   0.97735072   0.69248604    4.9408607    5.9790941   0.00344869 
    9020   0.97399845   0.69415965    4.9397473    5.9784685  0.036376265 
    9030   0.98509763   0.69535776    4.9368463     5.980692 -0.017007197 
    9040   0.98189057   0.69361931    4.9410854     5.982058  0.009517341 
    9050   0.98059452   0.69248692    4.9451786    5.9845604  0.012215183 
    9060    0.9865747   0.69286564    4.9429352    5.9848113 0.0024175174 
    9070    1.0012664   0.69332091    4.9401949    5.9877236 -0.021335988 
    9080     1.018047   0.69253879    4.9366409    5.9893238 -0.0099013461 
    9090    1.0028476   0.69192993    4.9409608    5.9876578  0.023073947 
    9100   0.99921184   0.68989699    4.9510699    5.9944478   0.00264886 
    9110    1.0207832   0.68890508    4.9494708     5.999488 -0.0023665548 
    9120    1.0200469    0.6908039    4.9535555     6.005211  0.024935302 
    9130    1.0100451   0.69233388     4.953905    6.0035522 0.0010627141 
    9140    1.0017494   0.69192732    4.9531125    5.9994184 -0.033825132 
    9150    1.0163313   0.69159928    4.9518034    6.0029398  -0.02713389 
    9160    1.0220955   0.69183551    4.9517548    6.0051666 0.0028452587 
    9170    1.0207382   0.69288532     4.949744    6.0037254 -0.018267729 
    9180    1.0186075   0.69053773    4.9523327    6.0032128  0.027791001 
    9190    1.0294969   0.68698234    4.9550302    6.0062071 -0.0097647473 
    9200    1.0273462   0.68620445    4.9575568     6.007195 -0.026930593 
    9210    1.0369426   0.68593275    4.9555288    6.0082901 0.0091728256 
    9220    1.0336277   0.68676913    4.9546225    6.0070475  0.015705778 
    9230    1.0285741   0.68598396    4.9539483    6.0038004 -0.015334066 
    9240    1.0396427   0.68754574    4.9490882    6.0044177  0.016660823 
    9250    1.0365286   0.68775407    4.9516394    6.0060756  0.011248779 
    9260    1.0253654   0.68731398    4.9562397    6.0062867 -0.013792798 
    9270    1.0134751   0.68929645    4.9522158     6.000039 0.0041091352 
    9280    1.0320703   0.69281067    4.9437719    6.0016875  0.027647432 
    9290    1.0247889   0.69366271    4.9469316    6.0031234  0.025093111 
    9300    1.0165956   0.69116958    4.9525425    6.0033427 -0.046391931 
    9310    1.0189646   0.69236049    4.9489611    6.0017903 0.0058601467 
    9320    1.0060221    0.6925814    4.9480711    5.9965426 -0.005489646 
    9330     1.019062   0.69241868    4.9465038    5.9994257 -0.023792955 
    9340    1.0152684   0.69263911      4.94597    5.9977702 0.0027864843 
    9350    1.0309709   0.69335738     4.943065    6.0011384 -0.0078133228 
    9360    1.0108496   0.69362344    4.9471826     5.998404 -0.019051958 
    9370    1.0291201   0.69329963    4.9456851     6.003046 -0.0019789812 
    9380    1.0360864   0.69228515    4.9441705    6.0029813 -0.010166546 
    9390     1.011851   0.69080323    4.9510508    5.9998061 -0.021365447 
    9400    1.0083195   0.69143164    4.9506309    5.9987654  0.002689689 
    9410    1.0197573   0.69084656    4.9476985    5.9992941 -0.014903624 
    9420    1.0401317    0.6900014     4.943618    6.0015761 0.0018807318 
    9430    1.0112915   0.69070411    4.9500925    5.9985509 -0.025947705 
    9440     1.013667    0.6906558    4.9481065    5.9973569  0.028027871 
    9450    1.0311967   0.68942129    4.9422595    5.9964767 0.0093078437 
    9460    1.0379348   0.68842572    4.9443446    5.9999499 -0.010707567 
    9470     1.024919    0.6886293    4.9487854    5.9999898 -0.0096132718 
    9480    1.0373017   0.68792971    4.9436957     5.998581 0.00089809318 
    9490    1.0140563   0.68788194     4.950893    5.9975073 -0.012662406 
    9500    1.0399995   0.68954068    4.9434511    6.0009018 0.0020284758 
    9510     1.013659   0.68965695    4.9494129    5.9976616 -0.030001322 
    9520    1.0367731   0.69082147    4.9399751    5.9975652  0.042160409 
    9530    1.0216662   0.69218179    4.9464888     6.000095  0.031616359 
    9540    1.0330023   0.69330619    4.9439431    6.0026839  0.014473988 
    9550    1.0317153    0.6932614    4.9432852     6.001526 -0.0011250134 
    9560     1.029764   0.69059439    4.9478662    6.0027496 0.0040244398 
    9570    1.0233748   0.69159635    4.9489397    6.0025649  0.019366715 
    9580    1.0254285   0.69205659    4.9468645    6.0016764 0.0072529541 
    9590    1.0260295   0.69195336    4.9459773    6.0008987 0.00047588458 
    9600    1.0413846   0.68953887     4.943801    6.0017398  0.025937189 
    9610    1.0142847   0.68816881    4.9529612    5.9999431 -0.0041092185 
    9620    1.0065017   0.68853511    4.9535093    5.9981042  0.011280919 
    9630    1.0087643   0.68815959     4.947327    5.9923468 -0.016485058 
    9640     1.009303   0.68924677    4.9462057    5.9925033 -0.0024460063 
    9650    1.0038047   0.69214261    4.9410694    5.9883177  0.017095923 
    9660    1.0155596   0.69200705    4.9362592    5.9875303 0.0043062374 
    9670    0.9899232    0.6905069     4.946508    5.9872099   0.01991874 
    9680   0.97703429   0.68943162    4.9537986    5.9888657 0.0012461989 
    9690   0.99405822   0.68925366    4.9477384    5.9886499 -0.012893557 
    9700    1.0052677   0.69177496    4.9373106    5.9847088  0.044703761 
    9710   0.99968088   0.69377858    4.9368361    5.9842616  0.047231547 
    9720   0.98673434   0.69133865    4.9446199    5.9850255  0.010979967 
    9730   0.98123769   0.68859976    4.9447519    5.9804741 -0.0045180684 
    9740   0.97366505   0.68725947    4.9488194    5.9805224 -0.00038291217 
    9750   0.97444636   0.68847537    4.9431907     5.976386 0.0048348558 
    9760    1.0010131   0.69021417    4.9334954    5.9778277   0.03517309 
    9770    0.9985747   0.68848368     4.937801    5.9795403 -0.0038619935 
    9780   0.99169395   0.68544981    4.9431503    5.9794216 -0.029897629 
    9790   0.99134945   0.68288568    4.9462501    5.9798353 -0.0026056671 
    9800   0.97519276   0.68146929    4.9538567      5.98031 0.0017438415 
    9810    0.9831434   0.68004751    4.9504734    5.9783175  0.028775216 
    9820    1.0127083   0.68232814    4.9428477    5.9834313 0.0012589511 
    9830    1.0188303   0.68229333    4.9393935    5.9821081 -0.0024967006 
    9840    1.0097201   0.68086145    4.9453139    5.9833737 -0.016782021 
    9850    1.0322837   0.68056316     4.942549    5.9882926  0.022733098 
    9860   0.99920789   0.68102612    4.9514103    5.9859159 0.0084552627 
    9870   0.99703597   0.68111092    4.9529772    5.9867994 -0.028922385 
    9880   0.99483661   0.68427106    4.9541425    5.9903467 -0.0061696512 
    9890    1.0132534   0.68908125    4.9425096    5.9900391  0.031706413 
    9900    1.0186746   0.69072344    4.9397632    5.9908527 -0.014094025 
    9910    1.0192368   0.69019176    4.9405909    5.9913476  0.047386084 
    9920    1.0112648   0.68964069    4.9445295     5.991915 -0.015357653 
    9930     1.017141   0.68861748    4.9450855    5.9935265 -0.021353429 
    9940    1.0186717   0.69065914    4.9411157    5.9921399 0.0046343049 
    9950    1.0079492   0.69271463    4.9383506    5.9876371 -0.029678501 
    9960    1.0080683   0.69476395    4.9364068    5.9877848 -0.021394804 
    9970   0.99313006   0.69744965    4.9386828    5.9874619 0.00010662446 
    9980    1.0031278    0.6961194    4.9357299    5.9867156 0.0060757479 
    9990   0.98297808   0.69616372    4.9438021    5.9877039 -0.0039339975 
   10000   0.98898042   0.69620578    4.9425408    5.9886081 -0.027075377 
Loop time of 25.6857 on 1 procs for 10000 steps with 10240 atoms

Pair  time (%) = 6.88844 (26.8181)
Bond  time (%) = 1.54156 (6.00161)
Neigh time (%) = 3.66952 (14.2862)
Comm  time (%) = 0.0827585 (0.322196)
Outpt time (%) = 1.47401 (5.73862)
Other time (%) = 12.0295 (46.8332)

Nlocal:    10240 ave 10240 max 10240 min
Histogram: 1 0 0 0 0 0 0 0 0 0
Nghost:    19 ave 19 max 19 min
Histogram: 1 0 0 0 0 0 0 0 0 0
Neighs:    25575 ave 25575 max 25575 min
Histogram: 1 0 0 0 0 0 0 0 0 0

Total # of neighbors = 25575
Ave neighs/atom = 2.49756
Ave special neighs/atom = 0.46875
Neighbor list builds = 163
Dangerous builds = 0

write_restart soft.restart

